<?xml version="1.0"?>
<VTKFile type="StructuredGrid" version="0.1" byte_order="LittleEndian">
<StructuredGrid WholeExtent="          40          50          20          30           0           1">
<Piece Extent="          40          50          20          30           0           1">
<Points>
<DataArray NumberOfComponents="3" type="Float64" format="ascii">
    0.123841E-01    0.480136E-02    0.000000E+00
    0.127613E-01    0.480136E-02    0.000000E+00
    0.131422E-01    0.480136E-02    0.000000E+00
    0.135269E-01    0.480136E-02    0.000000E+00
    0.139155E-01    0.480136E-02    0.000000E+00
    0.143080E-01    0.480136E-02    0.000000E+00
    0.147044E-01    0.480136E-02    0.000000E+00
    0.151048E-01    0.480136E-02    0.000000E+00
    0.155092E-01    0.480136E-02    0.000000E+00
    0.159176E-01    0.480136E-02    0.000000E+00
    0.163301E-01    0.480136E-02    0.000000E+00
    0.123841E-01    0.499423E-02    0.000000E+00
    0.127613E-01    0.499423E-02    0.000000E+00
    0.131422E-01    0.499423E-02    0.000000E+00
    0.135269E-01    0.499423E-02    0.000000E+00
    0.139155E-01    0.499423E-02    0.000000E+00
    0.143080E-01    0.499423E-02    0.000000E+00
    0.147044E-01    0.499423E-02    0.000000E+00
    0.151048E-01    0.499423E-02    0.000000E+00
    0.155092E-01    0.499423E-02    0.000000E+00
    0.159176E-01    0.499423E-02    0.000000E+00
    0.163301E-01    0.499423E-02    0.000000E+00
    0.123841E-01    0.518324E-02    0.000000E+00
    0.127613E-01    0.518324E-02    0.000000E+00
    0.131422E-01    0.518324E-02    0.000000E+00
    0.135269E-01    0.518324E-02    0.000000E+00
    0.139155E-01    0.518324E-02    0.000000E+00
    0.143080E-01    0.518324E-02    0.000000E+00
    0.147044E-01    0.518324E-02    0.000000E+00
    0.151048E-01    0.518324E-02    0.000000E+00
    0.155092E-01    0.518324E-02    0.000000E+00
    0.159176E-01    0.518324E-02    0.000000E+00
    0.163301E-01    0.518324E-02    0.000000E+00
    0.123841E-01    0.536847E-02    0.000000E+00
    0.127613E-01    0.536847E-02    0.000000E+00
    0.131422E-01    0.536847E-02    0.000000E+00
    0.135269E-01    0.536847E-02    0.000000E+00
    0.139155E-01    0.536847E-02    0.000000E+00
    0.143080E-01    0.536847E-02    0.000000E+00
    0.147044E-01    0.536847E-02    0.000000E+00
    0.151048E-01    0.536847E-02    0.000000E+00
    0.155092E-01    0.536847E-02    0.000000E+00
    0.159176E-01    0.536847E-02    0.000000E+00
    0.163301E-01    0.536847E-02    0.000000E+00
    0.123841E-01    0.555000E-02    0.000000E+00
    0.127613E-01    0.555000E-02    0.000000E+00
    0.131422E-01    0.555000E-02    0.000000E+00
    0.135269E-01    0.555000E-02    0.000000E+00
    0.139155E-01    0.555000E-02    0.000000E+00
    0.143080E-01    0.555000E-02    0.000000E+00
    0.147044E-01    0.555000E-02    0.000000E+00
    0.151048E-01    0.555000E-02    0.000000E+00
    0.155092E-01    0.555000E-02    0.000000E+00
    0.159176E-01    0.555000E-02    0.000000E+00
    0.163301E-01    0.555000E-02    0.000000E+00
    0.123841E-01    0.572725E-02    0.000000E+00
    0.127613E-01    0.572725E-02    0.000000E+00
    0.131422E-01    0.572725E-02    0.000000E+00
    0.135269E-01    0.572725E-02    0.000000E+00
    0.139155E-01    0.572725E-02    0.000000E+00
    0.143080E-01    0.572725E-02    0.000000E+00
    0.147044E-01    0.572725E-02    0.000000E+00
    0.151048E-01    0.572725E-02    0.000000E+00
    0.155092E-01    0.572725E-02    0.000000E+00
    0.159176E-01    0.572725E-02    0.000000E+00
    0.163301E-01    0.572725E-02    0.000000E+00
    0.123841E-01    0.590981E-02    0.000000E+00
    0.127613E-01    0.590981E-02    0.000000E+00
    0.131422E-01    0.590981E-02    0.000000E+00
    0.135269E-01    0.590981E-02    0.000000E+00
    0.139155E-01    0.590981E-02    0.000000E+00
    0.143080E-01    0.590981E-02    0.000000E+00
    0.147044E-01    0.590981E-02    0.000000E+00
    0.151048E-01    0.590981E-02    0.000000E+00
    0.155092E-01    0.590981E-02    0.000000E+00
    0.159176E-01    0.590981E-02    0.000000E+00
    0.163301E-01    0.590981E-02    0.000000E+00
    0.123841E-01    0.609785E-02    0.000000E+00
    0.127613E-01    0.609785E-02    0.000000E+00
    0.131422E-01    0.609785E-02    0.000000E+00
    0.135269E-01    0.609785E-02    0.000000E+00
    0.139155E-01    0.609785E-02    0.000000E+00
    0.143080E-01    0.609785E-02    0.000000E+00
    0.147044E-01    0.609785E-02    0.000000E+00
    0.151048E-01    0.609785E-02    0.000000E+00
    0.155092E-01    0.609785E-02    0.000000E+00
    0.159176E-01    0.609785E-02    0.000000E+00
    0.163301E-01    0.609785E-02    0.000000E+00
    0.123841E-01    0.629154E-02    0.000000E+00
    0.127613E-01    0.629154E-02    0.000000E+00
    0.131422E-01    0.629154E-02    0.000000E+00
    0.135269E-01    0.629154E-02    0.000000E+00
    0.139155E-01    0.629154E-02    0.000000E+00
    0.143080E-01    0.629154E-02    0.000000E+00
    0.147044E-01    0.629154E-02    0.000000E+00
    0.151048E-01    0.629154E-02    0.000000E+00
    0.155092E-01    0.629154E-02    0.000000E+00
    0.159176E-01    0.629154E-02    0.000000E+00
    0.163301E-01    0.629154E-02    0.000000E+00
    0.123841E-01    0.649103E-02    0.000000E+00
    0.127613E-01    0.649103E-02    0.000000E+00
    0.131422E-01    0.649103E-02    0.000000E+00
    0.135269E-01    0.649103E-02    0.000000E+00
    0.139155E-01    0.649103E-02    0.000000E+00
    0.143080E-01    0.649103E-02    0.000000E+00
    0.147044E-01    0.649103E-02    0.000000E+00
    0.151048E-01    0.649103E-02    0.000000E+00
    0.155092E-01    0.649103E-02    0.000000E+00
    0.159176E-01    0.649103E-02    0.000000E+00
    0.163301E-01    0.649103E-02    0.000000E+00
    0.123841E-01    0.669651E-02    0.000000E+00
    0.127613E-01    0.669651E-02    0.000000E+00
    0.131422E-01    0.669651E-02    0.000000E+00
    0.135269E-01    0.669651E-02    0.000000E+00
    0.139155E-01    0.669651E-02    0.000000E+00
    0.143080E-01    0.669651E-02    0.000000E+00
    0.147044E-01    0.669651E-02    0.000000E+00
    0.151048E-01    0.669651E-02    0.000000E+00
    0.155092E-01    0.669651E-02    0.000000E+00
    0.159176E-01    0.669651E-02    0.000000E+00
    0.163301E-01    0.669651E-02    0.000000E+00
    0.123841E-01    0.480136E-02    0.160000E-02
    0.127613E-01    0.480136E-02    0.160000E-02
    0.131422E-01    0.480136E-02    0.160000E-02
    0.135269E-01    0.480136E-02    0.160000E-02
    0.139155E-01    0.480136E-02    0.160000E-02
    0.143080E-01    0.480136E-02    0.160000E-02
    0.147044E-01    0.480136E-02    0.160000E-02
    0.151048E-01    0.480136E-02    0.160000E-02
    0.155092E-01    0.480136E-02    0.160000E-02
    0.159176E-01    0.480136E-02    0.160000E-02
    0.163301E-01    0.480136E-02    0.160000E-02
    0.123841E-01    0.499423E-02    0.160000E-02
    0.127613E-01    0.499423E-02    0.160000E-02
    0.131422E-01    0.499423E-02    0.160000E-02
    0.135269E-01    0.499423E-02    0.160000E-02
    0.139155E-01    0.499423E-02    0.160000E-02
    0.143080E-01    0.499423E-02    0.160000E-02
    0.147044E-01    0.499423E-02    0.160000E-02
    0.151048E-01    0.499423E-02    0.160000E-02
    0.155092E-01    0.499423E-02    0.160000E-02
    0.159176E-01    0.499423E-02    0.160000E-02
    0.163301E-01    0.499423E-02    0.160000E-02
    0.123841E-01    0.518324E-02    0.160000E-02
    0.127613E-01    0.518324E-02    0.160000E-02
    0.131422E-01    0.518324E-02    0.160000E-02
    0.135269E-01    0.518324E-02    0.160000E-02
    0.139155E-01    0.518324E-02    0.160000E-02
    0.143080E-01    0.518324E-02    0.160000E-02
    0.147044E-01    0.518324E-02    0.160000E-02
    0.151048E-01    0.518324E-02    0.160000E-02
    0.155092E-01    0.518324E-02    0.160000E-02
    0.159176E-01    0.518324E-02    0.160000E-02
    0.163301E-01    0.518324E-02    0.160000E-02
    0.123841E-01    0.536847E-02    0.160000E-02
    0.127613E-01    0.536847E-02    0.160000E-02
    0.131422E-01    0.536847E-02    0.160000E-02
    0.135269E-01    0.536847E-02    0.160000E-02
    0.139155E-01    0.536847E-02    0.160000E-02
    0.143080E-01    0.536847E-02    0.160000E-02
    0.147044E-01    0.536847E-02    0.160000E-02
    0.151048E-01    0.536847E-02    0.160000E-02
    0.155092E-01    0.536847E-02    0.160000E-02
    0.159176E-01    0.536847E-02    0.160000E-02
    0.163301E-01    0.536847E-02    0.160000E-02
    0.123841E-01    0.555000E-02    0.160000E-02
    0.127613E-01    0.555000E-02    0.160000E-02
    0.131422E-01    0.555000E-02    0.160000E-02
    0.135269E-01    0.555000E-02    0.160000E-02
    0.139155E-01    0.555000E-02    0.160000E-02
    0.143080E-01    0.555000E-02    0.160000E-02
    0.147044E-01    0.555000E-02    0.160000E-02
    0.151048E-01    0.555000E-02    0.160000E-02
    0.155092E-01    0.555000E-02    0.160000E-02
    0.159176E-01    0.555000E-02    0.160000E-02
    0.163301E-01    0.555000E-02    0.160000E-02
    0.123841E-01    0.572725E-02    0.160000E-02
    0.127613E-01    0.572725E-02    0.160000E-02
    0.131422E-01    0.572725E-02    0.160000E-02
    0.135269E-01    0.572725E-02    0.160000E-02
    0.139155E-01    0.572725E-02    0.160000E-02
    0.143080E-01    0.572725E-02    0.160000E-02
    0.147044E-01    0.572725E-02    0.160000E-02
    0.151048E-01    0.572725E-02    0.160000E-02
    0.155092E-01    0.572725E-02    0.160000E-02
    0.159176E-01    0.572725E-02    0.160000E-02
    0.163301E-01    0.572725E-02    0.160000E-02
    0.123841E-01    0.590981E-02    0.160000E-02
    0.127613E-01    0.590981E-02    0.160000E-02
    0.131422E-01    0.590981E-02    0.160000E-02
    0.135269E-01    0.590981E-02    0.160000E-02
    0.139155E-01    0.590981E-02    0.160000E-02
    0.143080E-01    0.590981E-02    0.160000E-02
    0.147044E-01    0.590981E-02    0.160000E-02
    0.151048E-01    0.590981E-02    0.160000E-02
    0.155092E-01    0.590981E-02    0.160000E-02
    0.159176E-01    0.590981E-02    0.160000E-02
    0.163301E-01    0.590981E-02    0.160000E-02
    0.123841E-01    0.609785E-02    0.160000E-02
    0.127613E-01    0.609785E-02    0.160000E-02
    0.131422E-01    0.609785E-02    0.160000E-02
    0.135269E-01    0.609785E-02    0.160000E-02
    0.139155E-01    0.609785E-02    0.160000E-02
    0.143080E-01    0.609785E-02    0.160000E-02
    0.147044E-01    0.609785E-02    0.160000E-02
    0.151048E-01    0.609785E-02    0.160000E-02
    0.155092E-01    0.609785E-02    0.160000E-02
    0.159176E-01    0.609785E-02    0.160000E-02
    0.163301E-01    0.609785E-02    0.160000E-02
    0.123841E-01    0.629154E-02    0.160000E-02
    0.127613E-01    0.629154E-02    0.160000E-02
    0.131422E-01    0.629154E-02    0.160000E-02
    0.135269E-01    0.629154E-02    0.160000E-02
    0.139155E-01    0.629154E-02    0.160000E-02
    0.143080E-01    0.629154E-02    0.160000E-02
    0.147044E-01    0.629154E-02    0.160000E-02
    0.151048E-01    0.629154E-02    0.160000E-02
    0.155092E-01    0.629154E-02    0.160000E-02
    0.159176E-01    0.629154E-02    0.160000E-02
    0.163301E-01    0.629154E-02    0.160000E-02
    0.123841E-01    0.649103E-02    0.160000E-02
    0.127613E-01    0.649103E-02    0.160000E-02
    0.131422E-01    0.649103E-02    0.160000E-02
    0.135269E-01    0.649103E-02    0.160000E-02
    0.139155E-01    0.649103E-02    0.160000E-02
    0.143080E-01    0.649103E-02    0.160000E-02
    0.147044E-01    0.649103E-02    0.160000E-02
    0.151048E-01    0.649103E-02    0.160000E-02
    0.155092E-01    0.649103E-02    0.160000E-02
    0.159176E-01    0.649103E-02    0.160000E-02
    0.163301E-01    0.649103E-02    0.160000E-02
    0.123841E-01    0.669651E-02    0.160000E-02
    0.127613E-01    0.669651E-02    0.160000E-02
    0.131422E-01    0.669651E-02    0.160000E-02
    0.135269E-01    0.669651E-02    0.160000E-02
    0.139155E-01    0.669651E-02    0.160000E-02
    0.143080E-01    0.669651E-02    0.160000E-02
    0.147044E-01    0.669651E-02    0.160000E-02
    0.151048E-01    0.669651E-02    0.160000E-02
    0.155092E-01    0.669651E-02    0.160000E-02
    0.159176E-01    0.669651E-02    0.160000E-02
    0.163301E-01    0.669651E-02    0.160000E-02
</DataArray>
</Points>
<PointData>
<DataArray Name="Velocity" type="Float64" format="ascii" NumberOfComponents="3">
    0.822808E-01   -0.289111E-02    0.000000E+00
    0.826189E-01   -0.269011E-02    0.000000E+00
    0.829367E-01   -0.247887E-02    0.000000E+00
    0.832355E-01   -0.228590E-02    0.000000E+00
    0.835166E-01   -0.210948E-02    0.000000E+00
    0.837811E-01   -0.194808E-02    0.000000E+00
    0.840302E-01   -0.180032E-02    0.000000E+00
    0.842648E-01   -0.166494E-02    0.000000E+00
    0.844858E-01   -0.154082E-02    0.000000E+00
    0.846941E-01   -0.142693E-02    0.000000E+00
    0.848906E-01   -0.132237E-02    0.000000E+00
    0.823818E-01   -0.295051E-02    0.000000E+00
    0.827105E-01   -0.274691E-02    0.000000E+00
    0.830198E-01   -0.253282E-02    0.000000E+00
    0.833110E-01   -0.233710E-02    0.000000E+00
    0.835852E-01   -0.215805E-02    0.000000E+00
    0.838435E-01   -0.199413E-02    0.000000E+00
    0.840869E-01   -0.184394E-02    0.000000E+00
    0.843164E-01   -0.170625E-02    0.000000E+00
    0.845328E-01   -0.157991E-02    0.000000E+00
    0.847370E-01   -0.146392E-02    0.000000E+00
    0.849297E-01   -0.135734E-02    0.000000E+00
    0.824562E-01   -0.300762E-02    0.000000E+00
    0.827782E-01   -0.280157E-02    0.000000E+00
    0.830814E-01   -0.258477E-02    0.000000E+00
    0.833670E-01   -0.238645E-02    0.000000E+00
    0.836362E-01   -0.220489E-02    0.000000E+00
    0.838899E-01   -0.203856E-02    0.000000E+00
    0.841293E-01   -0.188606E-02    0.000000E+00
    0.843550E-01   -0.174615E-02    0.000000E+00
    0.845681E-01   -0.161770E-02    0.000000E+00
    0.847692E-01   -0.149968E-02    0.000000E+00
    0.849591E-01   -0.139117E-02    0.000000E+00
    0.825441E-01   -0.306165E-02    0.000000E+00
    0.828580E-01   -0.285338E-02    0.000000E+00
    0.831539E-01   -0.263411E-02    0.000000E+00
    0.834329E-01   -0.243339E-02    0.000000E+00
    0.836962E-01   -0.224952E-02    0.000000E+00
    0.839445E-01   -0.208095E-02    0.000000E+00
    0.841790E-01   -0.192631E-02    0.000000E+00
    0.844004E-01   -0.178433E-02    0.000000E+00
    0.846094E-01   -0.165389E-02    0.000000E+00
    0.848070E-01   -0.153397E-02    0.000000E+00
    0.849936E-01   -0.142364E-02    0.000000E+00
    0.826442E-01   -0.311198E-02    0.000000E+00
    0.829488E-01   -0.290178E-02    0.000000E+00
    0.832364E-01   -0.268035E-02    0.000000E+00
    0.835079E-01   -0.247751E-02    0.000000E+00
    0.837644E-01   -0.229157E-02    0.000000E+00
    0.840066E-01   -0.212099E-02    0.000000E+00
    0.842356E-01   -0.196439E-02    0.000000E+00
    0.844520E-01   -0.182052E-02    0.000000E+00
    0.846565E-01   -0.168826E-02    0.000000E+00
    0.848499E-01   -0.156658E-02    0.000000E+00
    0.850328E-01   -0.145456E-02    0.000000E+00
    0.827545E-01   -0.315799E-02    0.000000E+00
    0.830490E-01   -0.294622E-02    0.000000E+00
    0.833274E-01   -0.272298E-02    0.000000E+00
    0.835906E-01   -0.251834E-02    0.000000E+00
    0.838397E-01   -0.233061E-02    0.000000E+00
    0.840752E-01   -0.215827E-02    0.000000E+00
    0.842981E-01   -0.199996E-02    0.000000E+00
    0.845089E-01   -0.185441E-02    0.000000E+00
    0.847085E-01   -0.172051E-02    0.000000E+00
    0.848974E-01   -0.159725E-02    0.000000E+00
    0.850762E-01   -0.148371E-02    0.000000E+00
    0.828804E-01   -0.320161E-02    0.000000E+00
    0.831632E-01   -0.298857E-02    0.000000E+00
    0.834312E-01   -0.276383E-02    0.000000E+00
    0.836851E-01   -0.255766E-02    0.000000E+00
    0.839257E-01   -0.236839E-02    0.000000E+00
    0.841536E-01   -0.219450E-02    0.000000E+00
    0.843695E-01   -0.203463E-02    0.000000E+00
    0.845741E-01   -0.188755E-02    0.000000E+00
    0.847680E-01   -0.175215E-02    0.000000E+00
    0.849518E-01   -0.162742E-02    0.000000E+00
    0.851259E-01   -0.151244E-02    0.000000E+00
    0.830217E-01   -0.324202E-02    0.000000E+00
    0.832917E-01   -0.302811E-02    0.000000E+00
    0.835481E-01   -0.280227E-02    0.000000E+00
    0.837916E-01   -0.259490E-02    0.000000E+00
    0.840227E-01   -0.240437E-02    0.000000E+00
    0.842420E-01   -0.222918E-02    0.000000E+00
    0.844502E-01   -0.206799E-02    0.000000E+00
    0.846478E-01   -0.191957E-02    0.000000E+00
    0.848353E-01   -0.178283E-02    0.000000E+00
    0.850133E-01   -0.165678E-02    0.000000E+00
    0.851822E-01   -0.154050E-02    0.000000E+00
    0.831782E-01   -0.327841E-02    0.000000E+00
    0.834342E-01   -0.306409E-02    0.000000E+00
    0.836780E-01   -0.283761E-02    0.000000E+00
    0.839099E-01   -0.262945E-02    0.000000E+00
    0.841306E-01   -0.243802E-02    0.000000E+00
    0.843405E-01   -0.226183E-02    0.000000E+00
    0.845402E-01   -0.209958E-02    0.000000E+00
    0.847300E-01   -0.195006E-02    0.000000E+00
    0.849105E-01   -0.181220E-02    0.000000E+00
    0.850820E-01   -0.168500E-02    0.000000E+00
    0.852451E-01   -0.156757E-02    0.000000E+00
    0.833493E-01   -0.330998E-02    0.000000E+00
    0.835902E-01   -0.309578E-02    0.000000E+00
    0.838202E-01   -0.286918E-02    0.000000E+00
    0.840398E-01   -0.266070E-02    0.000000E+00
    0.842492E-01   -0.246877E-02    0.000000E+00
    0.844489E-01   -0.229195E-02    0.000000E+00
    0.846392E-01   -0.212896E-02    0.000000E+00
    0.848206E-01   -0.197862E-02    0.000000E+00
    0.849934E-01   -0.183987E-02    0.000000E+00
    0.851579E-01   -0.171174E-02    0.000000E+00
    0.853146E-01   -0.159336E-02    0.000000E+00
    0.835339E-01   -0.333596E-02    0.000000E+00
    0.837588E-01   -0.312245E-02    0.000000E+00
    0.839743E-01   -0.289634E-02    0.000000E+00
    0.841806E-01   -0.268806E-02    0.000000E+00
    0.843779E-01   -0.249608E-02    0.000000E+00
    0.845667E-01   -0.231904E-02    0.000000E+00
    0.847470E-01   -0.215567E-02    0.000000E+00
    0.849193E-01   -0.200483E-02    0.000000E+00
    0.850838E-01   -0.186548E-02    0.000000E+00
    0.852408E-01   -0.173668E-02    0.000000E+00
    0.853906E-01   -0.161756E-02    0.000000E+00
    0.822585E-01   -0.292150E-02    0.715561E-18
    0.825987E-01   -0.269011E-02    0.658887E-18
    0.829183E-01   -0.247887E-02    0.607149E-18
    0.832189E-01   -0.228590E-02    0.559884E-18
    0.835015E-01   -0.210948E-02    0.516674E-18
    0.837674E-01   -0.194808E-02    0.477143E-18
    0.840177E-01   -0.180032E-02    0.440951E-18
    0.842535E-01   -0.166494E-02    0.407793E-18
    0.844755E-01   -0.154082E-02    0.377392E-18
    0.846848E-01   -0.142693E-02    0.349498E-18
    0.848821E-01   -0.132237E-02    0.323886E-18
    0.823818E-01   -0.298128E-02    0.730203E-18
    0.827105E-01   -0.274691E-02    0.672799E-18
    0.830198E-01   -0.253282E-02    0.620361E-18
    0.833110E-01   -0.233710E-02    0.572425E-18
    0.835852E-01   -0.215805E-02    0.528570E-18
    0.838435E-01   -0.199413E-02    0.488421E-18
    0.840869E-01   -0.184394E-02    0.451636E-18
    0.843164E-01   -0.170625E-02    0.417910E-18
    0.845328E-01   -0.157991E-02    0.386968E-18
    0.847370E-01   -0.146392E-02    0.358557E-18
    0.849297E-01   -0.135734E-02    0.332452E-18
    0.824562E-01   -0.303875E-02    0.744279E-18
    0.827782E-01   -0.280157E-02    0.686186E-18
    0.830814E-01   -0.258477E-02    0.633086E-18
    0.833670E-01   -0.238645E-02    0.584511E-18
    0.836362E-01   -0.220489E-02    0.540043E-18
    0.838899E-01   -0.203856E-02    0.499303E-18
    0.841293E-01   -0.188606E-02    0.461952E-18
    0.843550E-01   -0.174615E-02    0.427684E-18
    0.845681E-01   -0.161770E-02    0.396222E-18
    0.847692E-01   -0.149968E-02    0.367316E-18
    0.849591E-01   -0.139117E-02    0.340737E-18
    0.825441E-01   -0.309311E-02    0.757592E-18
    0.828580E-01   -0.285338E-02    0.698876E-18
    0.831539E-01   -0.263411E-02    0.645171E-18
    0.834329E-01   -0.243339E-02    0.596010E-18
    0.836962E-01   -0.224952E-02    0.550974E-18
    0.839445E-01   -0.208095E-02    0.509687E-18
    0.841790E-01   -0.192631E-02    0.471809E-18
    0.844004E-01   -0.178433E-02    0.437035E-18
    0.846094E-01   -0.165389E-02    0.405087E-18
    0.848070E-01   -0.153397E-02    0.375714E-18
    0.849936E-01   -0.142364E-02    0.348690E-18
    0.826442E-01   -0.314372E-02    0.769988E-18
    0.829488E-01   -0.290178E-02    0.710732E-18
    0.832364E-01   -0.268035E-02    0.656496E-18
    0.835079E-01   -0.247751E-02    0.606815E-18
    0.837644E-01   -0.229157E-02    0.561272E-18
    0.840066E-01   -0.212099E-02    0.519492E-18
    0.842356E-01   -0.196439E-02    0.481137E-18
    0.844520E-01   -0.182052E-02    0.445900E-18
    0.846565E-01   -0.168826E-02    0.413505E-18
    0.848499E-01   -0.156658E-02    0.383702E-18
    0.850328E-01   -0.145456E-02    0.356266E-18
    0.827545E-01   -0.318996E-02    0.781314E-18
    0.830490E-01   -0.294622E-02    0.721616E-18
    0.833274E-01   -0.272298E-02    0.666937E-18
    0.835906E-01   -0.251834E-02    0.616814E-18
    0.838397E-01   -0.233061E-02    0.570835E-18
    0.840752E-01   -0.215827E-02    0.528625E-18
    0.842981E-01   -0.199996E-02    0.489848E-18
    0.845089E-01   -0.185441E-02    0.454199E-18
    0.847085E-01   -0.172051E-02    0.421404E-18
    0.848974E-01   -0.159725E-02    0.391214E-18
    0.850762E-01   -0.148371E-02    0.363404E-18
    0.828804E-01   -0.323375E-02    0.792040E-18
    0.831632E-01   -0.298857E-02    0.731989E-18
    0.834312E-01   -0.276383E-02    0.676944E-18
    0.836851E-01   -0.255766E-02    0.626447E-18
    0.839257E-01   -0.236839E-02    0.580087E-18
    0.841536E-01   -0.219450E-02    0.537497E-18
    0.843695E-01   -0.203463E-02    0.498341E-18
    0.845741E-01   -0.188755E-02    0.462317E-18
    0.847680E-01   -0.175215E-02    0.429154E-18
    0.849518E-01   -0.162742E-02    0.398604E-18
    0.851259E-01   -0.151244E-02    0.370442E-18
    0.830217E-01   -0.327427E-02    0.801965E-18
    0.832917E-01   -0.302811E-02    0.741674E-18
    0.835481E-01   -0.280227E-02    0.686358E-18
    0.837916E-01   -0.259490E-02    0.635568E-18
    0.840227E-01   -0.240437E-02    0.588901E-18
    0.842420E-01   -0.222918E-02    0.545992E-18
    0.844502E-01   -0.206799E-02    0.506510E-18
    0.846478E-01   -0.191957E-02    0.470159E-18
    0.848353E-01   -0.178283E-02    0.436669E-18
    0.850133E-01   -0.165678E-02    0.405794E-18
    0.851822E-01   -0.154050E-02    0.377313E-18
    0.831782E-01   -0.331071E-02    0.810889E-18
    0.834342E-01   -0.306409E-02    0.750486E-18
    0.836780E-01   -0.283761E-02    0.695013E-18
    0.839099E-01   -0.262945E-02    0.644030E-18
    0.841306E-01   -0.243802E-02    0.597142E-18
    0.843405E-01   -0.226183E-02    0.553989E-18
    0.845402E-01   -0.209958E-02    0.514248E-18
    0.847300E-01   -0.195006E-02    0.477627E-18
    0.849105E-01   -0.181220E-02    0.443860E-18
    0.850820E-01   -0.168500E-02    0.412706E-18
    0.852451E-01   -0.156757E-02    0.383944E-18
    0.833493E-01   -0.334224E-02    0.818612E-18
    0.835902E-01   -0.309578E-02    0.758247E-18
    0.838202E-01   -0.286918E-02    0.702747E-18
    0.840398E-01   -0.266070E-02    0.651684E-18
    0.842492E-01   -0.246877E-02    0.604674E-18
    0.844489E-01   -0.229195E-02    0.561366E-18
    0.846392E-01   -0.212896E-02    0.521444E-18
    0.848206E-01   -0.197862E-02    0.484621E-18
    0.849934E-01   -0.183987E-02    0.450638E-18
    0.851579E-01   -0.171174E-02    0.419256E-18
    0.853146E-01   -0.159336E-02    0.390260E-18
    0.835339E-01   -0.336809E-02    0.824945E-18
    0.837588E-01   -0.312245E-02    0.764781E-18
    0.839743E-01   -0.289634E-02    0.709398E-18
    0.841806E-01   -0.268806E-02    0.658384E-18
    0.843779E-01   -0.249608E-02    0.611364E-18
    0.845667E-01   -0.231904E-02    0.568001E-18
    0.847470E-01   -0.215567E-02    0.527986E-18
    0.849193E-01   -0.200483E-02    0.491041E-18
    0.850838E-01   -0.186548E-02    0.456910E-18
    0.852408E-01   -0.173668E-02    0.425363E-18
    0.853906E-01   -0.161756E-02    0.396187E-18
</DataArray>
</PointData>
<CellData>
<DataArray Name="DP" type="Float64" format="ascii" NumberOfComponents="1">
      0.000000E+0000
      0.000000E+0000
      0.000000E+0000
      0.000000E+0000
      0.000000E+0000
      0.000000E+0000
      0.000000E+0000
      0.000000E+0000
      0.000000E+0000
      0.000000E+0000
      0.000000E+0000
      0.000000E+0000
      0.000000E+0000
      0.000000E+0000
      0.000000E+0000
      0.000000E+0000
      0.000000E+0000
      0.000000E+0000
      0.000000E+0000
      0.000000E+0000
      0.000000E+0000
      0.000000E+0000
      0.000000E+0000
      0.000000E+0000
      0.000000E+0000
      0.000000E+0000
      0.000000E+0000
      0.000000E+0000
      0.000000E+0000
      0.000000E+0000
      0.000000E+0000
      0.000000E+0000
      0.000000E+0000
      0.000000E+0000
      0.000000E+0000
      0.000000E+0000
      0.000000E+0000
      0.000000E+0000
      0.000000E+0000
      0.000000E+0000
      0.000000E+0000
      0.000000E+0000
      0.000000E+0000
      0.000000E+0000
      0.000000E+0000
      0.000000E+0000
      0.000000E+0000
      0.000000E+0000
      0.000000E+0000
      0.000000E+0000
      0.000000E+0000
      0.000000E+0000
      0.000000E+0000
      0.000000E+0000
      0.000000E+0000
      0.000000E+0000
      0.000000E+0000
      0.000000E+0000
      0.000000E+0000
      0.000000E+0000
      0.000000E+0000
      0.000000E+0000
      0.000000E+0000
      0.000000E+0000
      0.000000E+0000
      0.000000E+0000
      0.000000E+0000
      0.000000E+0000
      0.000000E+0000
      0.000000E+0000
      0.000000E+0000
      0.000000E+0000
      0.000000E+0000
      0.000000E+0000
      0.000000E+0000
      0.000000E+0000
      0.000000E+0000
      0.000000E+0000
      0.000000E+0000
      0.000000E+0000
      0.000000E+0000
      0.000000E+0000
      0.000000E+0000
      0.000000E+0000
      0.000000E+0000
      0.000000E+0000
      0.000000E+0000
      0.000000E+0000
      0.000000E+0000
      0.000000E+0000
      0.000000E+0000
      0.000000E+0000
      0.000000E+0000
      0.000000E+0000
      0.000000E+0000
      0.000000E+0000
      0.000000E+0000
      0.000000E+0000
      0.000000E+0000
      0.000000E+0000
</DataArray>
<DataArray Name="P" type="Float64" format="ascii" NumberOfComponents="1">
      0.488801E+0000
      0.484436E+0000
      0.480026E+0000
      0.475571E+0000
      0.471071E+0000
      0.466526E+0000
      0.461935E+0000
      0.457298E+0000
      0.452615E+0000
      0.447886E+0000
      0.488796E+0000
      0.484431E+0000
      0.480022E+0000
      0.475567E+0000
      0.471068E+0000
      0.466523E+0000
      0.461932E+0000
      0.457296E+0000
      0.452613E+0000
      0.447885E+0000
      0.488791E+0000
      0.484426E+0000
      0.480017E+0000
      0.475563E+0000
      0.471064E+0000
      0.466520E+0000
      0.461929E+0000
      0.457293E+0000
      0.452611E+0000
      0.447883E+0000
      0.488786E+0000
      0.484422E+0000
      0.480013E+0000
      0.475559E+0000
      0.471061E+0000
      0.466516E+0000
      0.461927E+0000
      0.457291E+0000
      0.452609E+0000
      0.447881E+0000
      0.488782E+0000
      0.484418E+0000
      0.480009E+0000
      0.475556E+0000
      0.471057E+0000
      0.466513E+0000
      0.461924E+0000
      0.457288E+0000
      0.452607E+0000
      0.447880E+0000
      0.488777E+0000
      0.484413E+0000
      0.480005E+0000
      0.475552E+0000
      0.471054E+0000
      0.466510E+0000
      0.461921E+0000
      0.457286E+0000
      0.452605E+0000
      0.447878E+0000
      0.488772E+0000
      0.484409E+0000
      0.480001E+0000
      0.475548E+0000
      0.471050E+0000
      0.466507E+0000
      0.461918E+0000
      0.457284E+0000
      0.452603E+0000
      0.447876E+0000
      0.488767E+0000
      0.484404E+0000
      0.479996E+0000
      0.475544E+0000
      0.471047E+0000
      0.466504E+0000
      0.461915E+0000
      0.457281E+0000
      0.452601E+0000
      0.447875E+0000
      0.488762E+0000
      0.484399E+0000
      0.479992E+0000
      0.475540E+0000
      0.471043E+0000
      0.466501E+0000
      0.461913E+0000
      0.457279E+0000
      0.452599E+0000
      0.447873E+0000
      0.488757E+0000
      0.484394E+0000
      0.479987E+0000
      0.475536E+0000
      0.471039E+0000
      0.466497E+0000
      0.461910E+0000
      0.457276E+0000
      0.452597E+0000
      0.447871E+0000
</DataArray>
<DataArray Name="RHO" type="Float64" format="ascii" NumberOfComponents="1">
      0.117197E+0001
      0.117197E+0001
      0.117197E+0001
      0.117197E+0001
      0.117197E+0001
      0.117197E+0001
      0.117197E+0001
      0.117197E+0001
      0.117197E+0001
      0.117197E+0001
      0.117197E+0001
      0.117197E+0001
      0.117197E+0001
      0.117197E+0001
      0.117197E+0001
      0.117197E+0001
      0.117197E+0001
      0.117197E+0001
      0.117197E+0001
      0.117197E+0001
      0.117197E+0001
      0.117197E+0001
      0.117197E+0001
      0.117197E+0001
      0.117197E+0001
      0.117197E+0001
      0.117197E+0001
      0.117197E+0001
      0.117197E+0001
      0.117197E+0001
      0.117197E+0001
      0.117197E+0001
      0.117197E+0001
      0.117197E+0001
      0.117197E+0001
      0.117197E+0001
      0.117197E+0001
      0.117197E+0001
      0.117197E+0001
      0.117197E+0001
      0.117197E+0001
      0.117197E+0001
      0.117197E+0001
      0.117197E+0001
      0.117197E+0001
      0.117197E+0001
      0.117197E+0001
      0.117197E+0001
      0.117197E+0001
      0.117197E+0001
      0.117197E+0001
      0.117197E+0001
      0.117197E+0001
      0.117197E+0001
      0.117197E+0001
      0.117197E+0001
      0.117197E+0001
      0.117197E+0001
      0.117197E+0001
      0.117197E+0001
      0.117197E+0001
      0.117197E+0001