<?xml version="1.0"?>
<VTKFile type="StructuredGrid" version="0.1" byte_order="LittleEndian">
<StructuredGrid WholeExtent="         110         120          90         100           0           1">
<Piece Extent="         110         120          90         100           0           1">
<Points>
<DataArray NumberOfComponents="3" type="Float64" format="ascii">
    0.503557E-01    0.412055E-01    0.000000E+00
    0.511126E-01    0.412055E-01    0.000000E+00
    0.518770E-01    0.412055E-01    0.000000E+00
    0.526491E-01    0.412055E-01    0.000000E+00
    0.534289E-01    0.412055E-01    0.000000E+00
    0.542166E-01    0.412055E-01    0.000000E+00
    0.550121E-01    0.412055E-01    0.000000E+00
    0.558155E-01    0.412055E-01    0.000000E+00
    0.566270E-01    0.412055E-01    0.000000E+00
    0.574466E-01    0.412055E-01    0.000000E+00
    0.582744E-01    0.412055E-01    0.000000E+00
    0.503557E-01    0.424525E-01    0.000000E+00
    0.511126E-01    0.424525E-01    0.000000E+00
    0.518770E-01    0.424525E-01    0.000000E+00
    0.526491E-01    0.424525E-01    0.000000E+00
    0.534289E-01    0.424525E-01    0.000000E+00
    0.542166E-01    0.424525E-01    0.000000E+00
    0.550121E-01    0.424525E-01    0.000000E+00
    0.558155E-01    0.424525E-01    0.000000E+00
    0.566270E-01    0.424525E-01    0.000000E+00
    0.574466E-01    0.424525E-01    0.000000E+00
    0.582744E-01    0.424525E-01    0.000000E+00
    0.503557E-01    0.437368E-01    0.000000E+00
    0.511126E-01    0.437368E-01    0.000000E+00
    0.518770E-01    0.437368E-01    0.000000E+00
    0.526491E-01    0.437368E-01    0.000000E+00
    0.534289E-01    0.437368E-01    0.000000E+00
    0.542166E-01    0.437368E-01    0.000000E+00
    0.550121E-01    0.437368E-01    0.000000E+00
    0.558155E-01    0.437368E-01    0.000000E+00
    0.566270E-01    0.437368E-01    0.000000E+00
    0.574466E-01    0.437368E-01    0.000000E+00
    0.582744E-01    0.437368E-01    0.000000E+00
    0.503557E-01    0.450596E-01    0.000000E+00
    0.511126E-01    0.450596E-01    0.000000E+00
    0.518770E-01    0.450596E-01    0.000000E+00
    0.526491E-01    0.450596E-01    0.000000E+00
    0.534289E-01    0.450596E-01    0.000000E+00
    0.542166E-01    0.450596E-01    0.000000E+00
    0.550121E-01    0.450596E-01    0.000000E+00
    0.558155E-01    0.450596E-01    0.000000E+00
    0.566270E-01    0.450596E-01    0.000000E+00
    0.574466E-01    0.450596E-01    0.000000E+00
    0.582744E-01    0.450596E-01    0.000000E+00
    0.503557E-01    0.464222E-01    0.000000E+00
    0.511126E-01    0.464222E-01    0.000000E+00
    0.518770E-01    0.464222E-01    0.000000E+00
    0.526491E-01    0.464222E-01    0.000000E+00
    0.534289E-01    0.464222E-01    0.000000E+00
    0.542166E-01    0.464222E-01    0.000000E+00
    0.550121E-01    0.464222E-01    0.000000E+00
    0.558155E-01    0.464222E-01    0.000000E+00
    0.566270E-01    0.464222E-01    0.000000E+00
    0.574466E-01    0.464222E-01    0.000000E+00
    0.582744E-01    0.464222E-01    0.000000E+00
    0.503557E-01    0.478256E-01    0.000000E+00
    0.511126E-01    0.478256E-01    0.000000E+00
    0.518770E-01    0.478256E-01    0.000000E+00
    0.526491E-01    0.478256E-01    0.000000E+00
    0.534289E-01    0.478256E-01    0.000000E+00
    0.542166E-01    0.478256E-01    0.000000E+00
    0.550121E-01    0.478256E-01    0.000000E+00
    0.558155E-01    0.478256E-01    0.000000E+00
    0.566270E-01    0.478256E-01    0.000000E+00
    0.574466E-01    0.478256E-01    0.000000E+00
    0.582744E-01    0.478256E-01    0.000000E+00
    0.503557E-01    0.492711E-01    0.000000E+00
    0.511126E-01    0.492711E-01    0.000000E+00
    0.518770E-01    0.492711E-01    0.000000E+00
    0.526491E-01    0.492711E-01    0.000000E+00
    0.534289E-01    0.492711E-01    0.000000E+00
    0.542166E-01    0.492711E-01    0.000000E+00
    0.550121E-01    0.492711E-01    0.000000E+00
    0.558155E-01    0.492711E-01    0.000000E+00
    0.566270E-01    0.492711E-01    0.000000E+00
    0.574466E-01    0.492711E-01    0.000000E+00
    0.582744E-01    0.492711E-01    0.000000E+00
    0.503557E-01    0.507600E-01    0.000000E+00
    0.511126E-01    0.507600E-01    0.000000E+00
    0.518770E-01    0.507600E-01    0.000000E+00
    0.526491E-01    0.507600E-01    0.000000E+00
    0.534289E-01    0.507600E-01    0.000000E+00
    0.542166E-01    0.507600E-01    0.000000E+00
    0.550121E-01    0.507600E-01    0.000000E+00
    0.558155E-01    0.507600E-01    0.000000E+00
    0.566270E-01    0.507600E-01    0.000000E+00
    0.574466E-01    0.507600E-01    0.000000E+00
    0.582744E-01    0.507600E-01    0.000000E+00
    0.503557E-01    0.522935E-01    0.000000E+00
    0.511126E-01    0.522935E-01    0.000000E+00
    0.518770E-01    0.522935E-01    0.000000E+00
    0.526491E-01    0.522935E-01    0.000000E+00
    0.534289E-01    0.522935E-01    0.000000E+00
    0.542166E-01    0.522935E-01    0.000000E+00
    0.550121E-01    0.522935E-01    0.000000E+00
    0.558155E-01    0.522935E-01    0.000000E+00
    0.566270E-01    0.522935E-01    0.000000E+00
    0.574466E-01    0.522935E-01    0.000000E+00
    0.582744E-01    0.522935E-01    0.000000E+00
    0.503557E-01    0.538731E-01    0.000000E+00
    0.511126E-01    0.538731E-01    0.000000E+00
    0.518770E-01    0.538731E-01    0.000000E+00
    0.526491E-01    0.538731E-01    0.000000E+00
    0.534289E-01    0.538731E-01    0.000000E+00
    0.542166E-01    0.538731E-01    0.000000E+00
    0.550121E-01    0.538731E-01    0.000000E+00
    0.558155E-01    0.538731E-01    0.000000E+00
    0.566270E-01    0.538731E-01    0.000000E+00
    0.574466E-01    0.538731E-01    0.000000E+00
    0.582744E-01    0.538731E-01    0.000000E+00
    0.503557E-01    0.555000E-01    0.000000E+00
    0.511126E-01    0.555000E-01    0.000000E+00
    0.518770E-01    0.555000E-01    0.000000E+00
    0.526491E-01    0.555000E-01    0.000000E+00
    0.534289E-01    0.555000E-01    0.000000E+00
    0.542166E-01    0.555000E-01    0.000000E+00
    0.550121E-01    0.555000E-01    0.000000E+00
    0.558155E-01    0.555000E-01    0.000000E+00
    0.566270E-01    0.555000E-01    0.000000E+00
    0.574466E-01    0.555000E-01    0.000000E+00
    0.582744E-01    0.555000E-01    0.000000E+00
    0.503557E-01    0.412055E-01    0.160000E-02
    0.511126E-01    0.412055E-01    0.160000E-02
    0.518770E-01    0.412055E-01    0.160000E-02
    0.526491E-01    0.412055E-01    0.160000E-02
    0.534289E-01    0.412055E-01    0.160000E-02
    0.542166E-01    0.412055E-01    0.160000E-02
    0.550121E-01    0.412055E-01    0.160000E-02
    0.558155E-01    0.412055E-01    0.160000E-02
    0.566270E-01    0.412055E-01    0.160000E-02
    0.574466E-01    0.412055E-01    0.160000E-02
    0.582744E-01    0.412055E-01    0.160000E-02
    0.503557E-01    0.424525E-01    0.160000E-02
    0.511126E-01    0.424525E-01    0.160000E-02
    0.518770E-01    0.424525E-01    0.160000E-02
    0.526491E-01    0.424525E-01    0.160000E-02
    0.534289E-01    0.424525E-01    0.160000E-02
    0.542166E-01    0.424525E-01    0.160000E-02
    0.550121E-01    0.424525E-01    0.160000E-02
    0.558155E-01    0.424525E-01    0.160000E-02
    0.566270E-01    0.424525E-01    0.160000E-02
    0.574466E-01    0.424525E-01    0.160000E-02
    0.582744E-01    0.424525E-01    0.160000E-02
    0.503557E-01    0.437368E-01    0.160000E-02
    0.511126E-01    0.437368E-01    0.160000E-02
    0.518770E-01    0.437368E-01    0.160000E-02
    0.526491E-01    0.437368E-01    0.160000E-02
    0.534289E-01    0.437368E-01    0.160000E-02
    0.542166E-01    0.437368E-01    0.160000E-02
    0.550121E-01    0.437368E-01    0.160000E-02
    0.558155E-01    0.437368E-01    0.160000E-02
    0.566270E-01    0.437368E-01    0.160000E-02
    0.574466E-01    0.437368E-01    0.160000E-02
    0.582744E-01    0.437368E-01    0.160000E-02
    0.503557E-01    0.450596E-01    0.160000E-02
    0.511126E-01    0.450596E-01    0.160000E-02
    0.518770E-01    0.450596E-01    0.160000E-02
    0.526491E-01    0.450596E-01    0.160000E-02
    0.534289E-01    0.450596E-01    0.160000E-02
    0.542166E-01    0.450596E-01    0.160000E-02
    0.550121E-01    0.450596E-01    0.160000E-02
    0.558155E-01    0.450596E-01    0.160000E-02
    0.566270E-01    0.450596E-01    0.160000E-02
    0.574466E-01    0.450596E-01    0.160000E-02
    0.582744E-01    0.450596E-01    0.160000E-02
    0.503557E-01    0.464222E-01    0.160000E-02
    0.511126E-01    0.464222E-01    0.160000E-02
    0.518770E-01    0.464222E-01    0.160000E-02
    0.526491E-01    0.464222E-01    0.160000E-02
    0.534289E-01    0.464222E-01    0.160000E-02
    0.542166E-01    0.464222E-01    0.160000E-02
    0.550121E-01    0.464222E-01    0.160000E-02
    0.558155E-01    0.464222E-01    0.160000E-02
    0.566270E-01    0.464222E-01    0.160000E-02
    0.574466E-01    0.464222E-01    0.160000E-02
    0.582744E-01    0.464222E-01    0.160000E-02
    0.503557E-01    0.478256E-01    0.160000E-02
    0.511126E-01    0.478256E-01    0.160000E-02
    0.518770E-01    0.478256E-01    0.160000E-02
    0.526491E-01    0.478256E-01    0.160000E-02
    0.534289E-01    0.478256E-01    0.160000E-02
    0.542166E-01    0.478256E-01    0.160000E-02
    0.550121E-01    0.478256E-01    0.160000E-02
    0.558155E-01    0.478256E-01    0.160000E-02
    0.566270E-01    0.478256E-01    0.160000E-02
    0.574466E-01    0.478256E-01    0.160000E-02
    0.582744E-01    0.478256E-01    0.160000E-02
    0.503557E-01    0.492711E-01    0.160000E-02
    0.511126E-01    0.492711E-01    0.160000E-02
    0.518770E-01    0.492711E-01    0.160000E-02
    0.526491E-01    0.492711E-01    0.160000E-02
    0.534289E-01    0.492711E-01    0.160000E-02
    0.542166E-01    0.492711E-01    0.160000E-02
    0.550121E-01    0.492711E-01    0.160000E-02
    0.558155E-01    0.492711E-01    0.160000E-02
    0.566270E-01    0.492711E-01    0.160000E-02
    0.574466E-01    0.492711E-01    0.160000E-02
    0.582744E-01    0.492711E-01    0.160000E-02
    0.503557E-01    0.507600E-01    0.160000E-02
    0.511126E-01    0.507600E-01    0.160000E-02
    0.518770E-01    0.507600E-01    0.160000E-02
    0.526491E-01    0.507600E-01    0.160000E-02
    0.534289E-01    0.507600E-01    0.160000E-02
    0.542166E-01    0.507600E-01    0.160000E-02
    0.550121E-01    0.507600E-01    0.160000E-02
    0.558155E-01    0.507600E-01    0.160000E-02
    0.566270E-01    0.507600E-01    0.160000E-02
    0.574466E-01    0.507600E-01    0.160000E-02
    0.582744E-01    0.507600E-01    0.160000E-02
    0.503557E-01    0.522935E-01    0.160000E-02
    0.511126E-01    0.522935E-01    0.160000E-02
    0.518770E-01    0.522935E-01    0.160000E-02
    0.526491E-01    0.522935E-01    0.160000E-02
    0.534289E-01    0.522935E-01    0.160000E-02
    0.542166E-01    0.522935E-01    0.160000E-02
    0.550121E-01    0.522935E-01    0.160000E-02
    0.558155E-01    0.522935E-01    0.160000E-02
    0.566270E-01    0.522935E-01    0.160000E-02
    0.574466E-01    0.522935E-01    0.160000E-02
    0.582744E-01    0.522935E-01    0.160000E-02
    0.503557E-01    0.538731E-01    0.160000E-02
    0.511126E-01    0.538731E-01    0.160000E-02
    0.518770E-01    0.538731E-01    0.160000E-02
    0.526491E-01    0.538731E-01    0.160000E-02
    0.534289E-01    0.538731E-01    0.160000E-02
    0.542166E-01    0.538731E-01    0.160000E-02
    0.550121E-01    0.538731E-01    0.160000E-02
    0.558155E-01    0.538731E-01    0.160000E-02
    0.566270E-01    0.538731E-01    0.160000E-02
    0.574466E-01    0.538731E-01    0.160000E-02
    0.582744E-01    0.538731E-01    0.160000E-02
    0.503557E-01    0.555000E-01    0.160000E-02
    0.511126E-01    0.555000E-01    0.160000E-02
    0.518770E-01    0.555000E-01    0.160000E-02
    0.526491E-01    0.555000E-01    0.160000E-02
    0.534289E-01    0.555000E-01    0.160000E-02
    0.542166E-01    0.555000E-01    0.160000E-02
    0.550121E-01    0.555000E-01    0.160000E-02
    0.558155E-01    0.555000E-01    0.160000E-02
    0.566270E-01    0.555000E-01    0.160000E-02
    0.574466E-01    0.555000E-01    0.160000E-02
    0.582744E-01    0.555000E-01    0.160000E-02
</DataArray>
</Points>
<PointData>
<DataArray Name="Velocity" type="Float64" format="ascii" NumberOfComponents="3">
    0.884510E-01   -0.576041E-04    0.000000E+00
    0.884489E-01   -0.552017E-04    0.000000E+00
    0.884469E-01   -0.525416E-04    0.000000E+00
    0.884450E-01   -0.499749E-04    0.000000E+00
    0.884432E-01   -0.475003E-04    0.000000E+00
    0.884414E-01   -0.451166E-04    0.000000E+00
    0.884397E-01   -0.428224E-04    0.000000E+00
    0.884381E-01   -0.406163E-04    0.000000E+00
    0.884366E-01   -0.384966E-04    0.000000E+00
    0.884352E-01   -0.364618E-04    0.000000E+00
    0.884338E-01   -0.345100E-04    0.000000E+00
    0.884546E-01   -0.522664E-04    0.000000E+00
    0.884524E-01   -0.500985E-04    0.000000E+00
    0.884502E-01   -0.476970E-04    0.000000E+00
    0.884482E-01   -0.453786E-04    0.000000E+00
    0.884462E-01   -0.431424E-04    0.000000E+00
    0.884443E-01   -0.409873E-04    0.000000E+00
    0.884425E-01   -0.389122E-04    0.000000E+00
    0.884407E-01   -0.369159E-04    0.000000E+00
    0.884391E-01   -0.349970E-04    0.000000E+00
    0.884375E-01   -0.331541E-04    0.000000E+00
    0.884360E-01   -0.313858E-04    0.000000E+00
    0.884575E-01   -0.467886E-04    0.000000E+00
    0.884552E-01   -0.448589E-04    0.000000E+00
    0.884529E-01   -0.427202E-04    0.000000E+00
    0.884507E-01   -0.406545E-04    0.000000E+00
    0.884486E-01   -0.386610E-04    0.000000E+00
    0.884466E-01   -0.367389E-04    0.000000E+00
    0.884447E-01   -0.348873E-04    0.000000E+00
    0.884428E-01   -0.331052E-04    0.000000E+00
    0.884411E-01   -0.313914E-04    0.000000E+00
    0.884394E-01   -0.297449E-04    0.000000E+00
    0.884378E-01   -0.281643E-04    0.000000E+00
    0.884608E-01   -0.411122E-04    0.000000E+00
    0.884583E-01   -0.394259E-04    0.000000E+00
    0.884559E-01   -0.375560E-04    0.000000E+00
    0.884536E-01   -0.357490E-04    0.000000E+00
    0.884513E-01   -0.340044E-04    0.000000E+00
    0.884492E-01   -0.323215E-04    0.000000E+00
    0.884472E-01   -0.306996E-04    0.000000E+00
    0.884452E-01   -0.291378E-04    0.000000E+00
    0.884433E-01   -0.276354E-04    0.000000E+00
    0.884415E-01   -0.261913E-04    0.000000E+00
    0.884398E-01   -0.248045E-04    0.000000E+00
    0.884640E-01   -0.352232E-04    0.000000E+00
    0.884614E-01   -0.337854E-04    0.000000E+00
    0.884588E-01   -0.321905E-04    0.000000E+00
    0.884564E-01   -0.306486E-04    0.000000E+00
    0.884540E-01   -0.291592E-04    0.000000E+00
    0.884518E-01   -0.277219E-04    0.000000E+00
    0.884496E-01   -0.263362E-04    0.000000E+00
    0.884475E-01   -0.250014E-04    0.000000E+00
    0.884456E-01   -0.237167E-04    0.000000E+00
    0.884437E-01   -0.224815E-04    0.000000E+00
    0.884418E-01   -0.212949E-04    0.000000E+00
    0.884670E-01   -0.291340E-04    0.000000E+00
    0.884642E-01   -0.279496E-04    0.000000E+00
    0.884615E-01   -0.266354E-04    0.000000E+00
    0.884590E-01   -0.253642E-04    0.000000E+00
    0.884565E-01   -0.241360E-04    0.000000E+00
    0.884541E-01   -0.229503E-04    0.000000E+00
    0.884519E-01   -0.218068E-04    0.000000E+00
    0.884497E-01   -0.207049E-04    0.000000E+00
    0.884476E-01   -0.196441E-04    0.000000E+00
    0.884456E-01   -0.186238E-04    0.000000E+00
    0.884437E-01   -0.176434E-04    0.000000E+00
    0.884700E-01   -0.228710E-04    0.000000E+00
    0.884672E-01   -0.219439E-04    0.000000E+00
    0.884644E-01   -0.209150E-04    0.000000E+00
    0.884618E-01   -0.199195E-04    0.000000E+00
    0.884592E-01   -0.189574E-04    0.000000E+00
    0.884568E-01   -0.180284E-04    0.000000E+00
    0.884544E-01   -0.171321E-04    0.000000E+00
    0.884522E-01   -0.162683E-04    0.000000E+00
    0.884500E-01   -0.154365E-04    0.000000E+00
    0.884480E-01   -0.146363E-04    0.000000E+00
    0.884460E-01   -0.138672E-04    0.000000E+00
    0.884764E-01   -0.164778E-04    0.000000E+00
    0.884734E-01   -0.158109E-04    0.000000E+00
    0.884706E-01   -0.150704E-04    0.000000E+00
    0.884680E-01   -0.143540E-04    0.000000E+00
    0.884654E-01   -0.136614E-04    0.000000E+00
    0.884629E-01   -0.129926E-04    0.000000E+00
    0.884605E-01   -0.123474E-04    0.000000E+00
    0.884582E-01   -0.117253E-04    0.000000E+00
    0.884560E-01   -0.111263E-04    0.000000E+00
    0.884539E-01   -0.105500E-04    0.000000E+00
    0.884519E-01   -0.999595E-05    0.000000E+00
    0.885005E-01   -0.100743E-04    0.000000E+00
    0.884977E-01   -0.966598E-05    0.000000E+00
    0.884950E-01   -0.921268E-05    0.000000E+00
    0.884924E-01   -0.877412E-05    0.000000E+00
    0.884899E-01   -0.835022E-05    0.000000E+00
    0.884875E-01   -0.794088E-05    0.000000E+00
    0.884852E-01   -0.754595E-05    0.000000E+00
    0.884830E-01   -0.716529E-05    0.000000E+00
    0.884808E-01   -0.679873E-05    0.000000E+00
    0.884788E-01   -0.644608E-05    0.000000E+00
    0.884768E-01   -0.610711E-05    0.000000E+00
    0.885911E-01   -0.410840E-05    0.000000E+00
    0.885888E-01   -0.394078E-05    0.000000E+00
    0.885866E-01   -0.375471E-05    0.000000E+00
    0.885845E-01   -0.357477E-05    0.000000E+00
    0.885825E-01   -0.340094E-05    0.000000E+00
    0.885805E-01   -0.323315E-05    0.000000E+00
    0.885786E-01   -0.307135E-05    0.000000E+00
    0.885768E-01   -0.291547E-05    0.000000E+00
    0.885751E-01   -0.276542E-05    0.000000E+00
    0.885734E-01   -0.262114E-05    0.000000E+00
    0.885719E-01   -0.248251E-05    0.000000E+00
    0.888319E-01    0.000000E+00    0.000000E+00
    0.888310E-01    0.000000E+00    0.000000E+00
    0.888301E-01    0.000000E+00    0.000000E+00
    0.888292E-01    0.000000E+00    0.000000E+00
    0.888284E-01    0.000000E+00    0.000000E+00
    0.888276E-01    0.000000E+00    0.000000E+00
    0.888268E-01    0.000000E+00    0.000000E+00
    0.888261E-01    0.000000E+00    0.000000E+00
    0.888254E-01    0.000000E+00    0.000000E+00
    0.888247E-01    0.000000E+00    0.000000E+00
    0.888241E-01    0.000000E+00    0.000000E+00
    0.884502E-01   -0.579561E-04    0.141951E-19
    0.884482E-01   -0.552017E-04    0.135205E-19
    0.884462E-01   -0.525416E-04    0.128690E-19
    0.884443E-01   -0.499749E-04    0.122403E-19
    0.884425E-01   -0.475003E-04    0.116342E-19
    0.884408E-01   -0.451166E-04    0.110504E-19
    0.884391E-01   -0.428224E-04    0.104885E-19
    0.884376E-01   -0.406163E-04    0.994812E-20
    0.884361E-01   -0.384966E-04    0.942895E-20
    0.884346E-01   -0.364618E-04    0.893056E-20
    0.884333E-01   -0.345100E-04    0.845251E-20
    0.884546E-01   -0.525839E-04    0.128793E-19
    0.884524E-01   -0.500985E-04    0.122706E-19
    0.884502E-01   -0.476970E-04    0.116824E-19
    0.884482E-01   -0.453786E-04    0.111146E-19
    0.884462E-01   -0.431424E-04    0.105668E-19
    0.884443E-01   -0.409873E-04    0.100390E-19
    0.884425E-01   -0.389122E-04    0.953074E-20
    0.884407E-01   -0.369159E-04    0.904178E-20
    0.884391E-01   -0.349970E-04    0.857178E-20
    0.884375E-01   -0.331541E-04    0.812041E-20
    0.884360E-01   -0.313858E-04    0.768730E-20
    0.884575E-01   -0.470711E-04    0.115291E-19
    0.884552E-01   -0.448589E-04    0.109873E-19
    0.884529E-01   -0.427202E-04    0.104634E-19
    0.884507E-01   -0.406545E-04    0.995748E-20
    0.884486E-01   -0.386610E-04    0.946921E-20
    0.884466E-01   -0.367389E-04    0.899843E-20
    0.884447E-01   -0.348873E-04    0.854492E-20
    0.884428E-01   -0.331052E-04    0.810843E-20
    0.884411E-01   -0.313914E-04    0.768868E-20
    0.884394E-01   -0.297449E-04    0.728539E-20
    0.884378E-01   -0.281643E-04    0.689826E-20
    0.884608E-01   -0.413591E-04    0.101300E-19
    0.884583E-01   -0.394259E-04    0.965656E-20
    0.884559E-01   -0.375560E-04    0.919857E-20
    0.884536E-01   -0.357490E-04    0.875599E-20
    0.884513E-01   -0.340044E-04    0.832867E-20
    0.884492E-01   -0.323215E-04    0.791648E-20
    0.884472E-01   -0.306996E-04    0.751922E-20
    0.884452E-01   -0.291378E-04    0.713671E-20
    0.884433E-01   -0.276354E-04    0.676872E-20
    0.884415E-01   -0.261913E-04    0.641501E-20
    0.884398E-01   -0.248045E-04    0.607534E-20
    0.884640E-01   -0.354335E-04    0.867871E-20
    0.884614E-01   -0.337854E-04    0.827503E-20
    0.884588E-01   -0.321905E-04    0.788440E-20
    0.884564E-01   -0.306486E-04    0.750673E-20
    0.884540E-01   -0.291592E-04    0.714194E-20
    0.884518E-01   -0.277219E-04    0.678991E-20
    0.884496E-01   -0.263362E-04    0.645051E-20
    0.884475E-01   -0.250014E-04    0.612357E-20
    0.884456E-01   -0.237167E-04    0.580893E-20
    0.884437E-01   -0.224815E-04    0.550639E-20
    0.884418E-01   -0.212949E-04    0.521576E-20
    0.884670E-01   -0.293073E-04    0.717822E-20
    0.884642E-01   -0.279496E-04    0.684569E-20
    0.884615E-01   -0.266354E-04    0.652378E-20
    0.884590E-01   -0.253642E-04    0.621245E-20
    0.884565E-01   -0.241360E-04    0.591162E-20
    0.884541E-01   -0.229503E-04    0.562121E-20
    0.884519E-01   -0.218068E-04    0.534112E-20
    0.884497E-01   -0.207049E-04    0.507124E-20
    0.884476E-01   -0.196441E-04    0.481142E-20
    0.884456E-01   -0.186238E-04    0.456152E-20
    0.884437E-01   -0.176434E-04    0.432138E-20
    0.884700E-01   -0.230066E-04    0.563498E-20
    0.884672E-01   -0.219439E-04    0.537471E-20
    0.884644E-01   -0.209150E-04    0.512269E-20
    0.884618E-01   -0.199195E-04    0.487887E-20
    0.884592E-01   -0.189574E-04    0.464322E-20
    0.884568E-01   -0.180284E-04    0.441567E-20
    0.884544E-01   -0.171321E-04    0.419616E-20
    0.884522E-01   -0.162683E-04    0.398459E-20
    0.884500E-01   -0.154365E-04    0.378086E-20
    0.884480E-01   -0.146363E-04    0.358486E-20
    0.884460E-01   -0.138672E-04    0.339649E-20
    0.884764E-01   -0.165754E-04    0.405980E-20
    0.884734E-01   -0.158109E-04    0.387254E-20
    0.884706E-01   -0.150704E-04    0.369119E-20
    0.884680E-01   -0.143540E-04    0.351571E-20
    0.884654E-01   -0.136614E-04    0.334609E-20
    0.884629E-01   -0.129926E-04    0.318228E-20
    0.884605E-01   -0.123474E-04    0.302423E-20
    0.884582E-01   -0.117253E-04    0.287188E-20
    0.884560E-01   -0.111263E-04    0.272516E-20
    0.884539E-01   -0.105500E-04    0.258400E-20
    0.884519E-01   -0.999595E-05    0.244830E-20
    0.885005E-01   -0.101340E-04    0.248212E-20
    0.884977E-01   -0.966598E-05    0.236748E-20
    0.884950E-01   -0.921268E-05    0.225646E-20
    0.884924E-01   -0.877412E-05    0.214904E-20
    0.884899E-01   -0.835022E-05    0.204521E-20
    0.884875E-01   -0.794088E-05    0.194495E-20
    0.884852E-01   -0.754595E-05    0.184822E-20
    0.884830E-01   -0.716529E-05    0.175499E-20
    0.884808E-01   -0.679873E-05    0.166521E-20
    0.884788E-01   -0.644608E-05    0.157883E-20
    0.884768E-01   -0.610711E-05    0.149581E-20
    0.885911E-01   -0.413291E-05    0.101227E-20
    0.885888E-01   -0.394078E-05    0.965213E-21
    0.885866E-01   -0.375471E-05    0.919638E-21
    0.885845E-01   -0.357477E-05    0.875567E-21
    0.885825E-01   -0.340094E-05    0.832990E-21
    0.885805E-01   -0.323315E-05    0.791894E-21
    0.885786E-01   -0.307135E-05    0.752264E-21
    0.885768E-01   -0.291547E-05    0.714084E-21
    0.885751E-01   -0.276542E-05    0.677332E-21
    0.885734E-01   -0.262114E-05    0.641995E-21
    0.885719E-01   -0.248251E-05    0.608039E-21
    0.888319E-01    0.000000E+00    0.000000E+00
    0.888310E-01    0.000000E+00    0.000000E+00
    0.888301E-01    0.000000E+00    0.000000E+00
    0.888292E-01    0.000000E+00    0.000000E+00
    0.888284E-01    0.000000E+00    0.000000E+00
    0.888276E-01    0.000000E+00    0.000000E+00
    0.888268E-01    0.000000E+00    0.000000E+00
    0.888261E-01    0.000000E+00    0.000000E+00
    0.888254E-01    0.000000E+00    0.000000E+00
    0.888247E-01    0.000000E+00    0.000000E+00
    0.888241E-01    0.000000E+00    0.000000E+00
</DataArray>
</PointData>
<CellData>
<DataArray Name="DP" type="Float64" format="ascii" NumberOfComponents="1">
      0.000000E+0000
      0.000000E+0000
      0.000000E+0000
      0.000000E+0000
      0.000000E+0000
      0.000000E+0000
      0.000000E+0000
      0.000000E+0000
      0.000000E+0000
      0.000000E+0000
      0.000000E+0000
      0.000000E+0000
      0.000000E+0000
      0.000000E+0000
      0.000000E+0000
      0.000000E+0000
      0.000000E+0000
      0.000000E+0000
      0.000000E+0000
      0.000000E+0000
      0.000000E+0000
      0.000000E+0000
      0.000000E+0000
      0.000000E+0000
      0.000000E+0000
      0.000000E+0000
      0.000000E+0000
      0.000000E+0000
      0.000000E+0000
      0.000000E+0000
      0.000000E+0000
      0.000000E+0000
      0.000000E+0000
      0.000000E+0000
      0.000000E+0000
      0.000000E+0000
      0.000000E+0000
      0.000000E+0000
      0.000000E+0000
      0.000000E+0000
      0.000000E+0000
      0.000000E+0000
      0.000000E+0000
      0.000000E+0000
      0.000000E+0000
      0.000000E+0000
      0.000000E+0000
      0.000000E+0000
      0.000000E+0000
      0.000000E+0000
      0.000000E+0000
      0.000000E+0000
      0.000000E+0000
      0.000000E+0000
      0.000000E+0000
      0.000000E+0000
      0.000000E+0000
      0.000000E+0000
      0.000000E+0000
      0.000000E+0000
      0.000000E+0000
      0.000000E+0000
      0.000000E+0000
      0.000000E+0000
      0.000000E+0000
      0.000000E+0000
      0.000000E+0000
      0.000000E+0000
      0.000000E+0000
      0.000000E+0000
      0.000000E+0000
      0.000000E+0000
      0.000000E+0000
      0.000000E+0000
      0.000000E+0000
      0.000000E+0000
      0.000000E+0000
      0.000000E+0000
      0.000000E+0000
      0.000000E+0000
      0.000000E+0000
      0.000000E+0000
      0.000000E+0000
      0.000000E+0000
      0.000000E+0000
      0.000000E+0000
      0.000000E+0000
      0.000000E+0000
      0.000000E+0000
      0.000000E+0000
      0.000000E+0000
      0.000000E+0000
      0.000000E+0000
      0.000000E+0000
      0.000000E+0000
      0.000000E+0000
      0.000000E+0000
      0.000000E+0000
      0.000000E+0000
      0.000000E+0000
</DataArray>
<DataArray Name="P" type="Float64" format="ascii" NumberOfComponents="1">
      0.498263E-0001
      0.410807E-0001
      0.322477E-0001
      0.233264E-0001
      0.143158E-0001
      0.521513E-0002
     -0.397657E-0002
     -0.132602E-0001
     -0.226367E-0001
     -0.321069E-0001
      0.498259E-0001
      0.410804E-0001
      0.322474E-0001
      0.233260E-0001
      0.143155E-0001
      0.521480E-0002
     -0.397688E-0002
     -0.132605E-0001
     -0.226369E-0001
     -0.321072E-0001
      0.498255E-0001
      0.410800E-0001
      0.322470E-0001
      0.233257E-0001
      0.143152E-0001
      0.521450E-0002
     -0.397718E-0002
     -0.132608E-0001
     -0.226372E-0001
     -0.321074E-0001
      0.498252E-0001
      0.410797E-0001
      0.322467E-0001
      0.233254E-0001
      0.143149E-0001
      0.521421E-0002
     -0.397745E-0002
     -0.132610E-0001
     -0.226375E-0001
     -0.321077E-0001
      0.498249E-0001
      0.410794E-0001
      0.322464E-0001
      0.233251E-0001
      0.143146E-0001
      0.521396E-0002
     -0.397770E-0002
     -0.132613E-0001
     -0.226377E-0001
     -0.321079E-0001
      0.498246E-0001
      0.410791E-0001
      0.322462E-0001
      0.233249E-0001
      0.143144E-0001
      0.521374E-0002
     -0.397791E-0002
     -0.132615E-0001
     -0.226379E-0001
     -0.321081E-0001
      0.498244E-0001
      0.410789E-0001
      0.322460E-0001
      0.233247E-0001
      0.143142E-0001
      0.521355E-0002
     -0.397809E-0002
     -0.132617E-0001
     -0.226381E-0001
     -0.321082E-0001
      0.498242E-0001
      0.410787E-0001
      0.322458E-0001
      0.233245E-0001
      0.143140E-0001
      0.521339E-0002
     -0.397824E-0002
     -0.132618E-0001
     -0.226382E-0001
     -0.321084E-0001
      0.498241E-0001
      0.410786E-0001
      0.322457E-0001
      0.233244E-0001
      0.143139E-0001
      0.521327E-0002
     -0.397835E-0002
     -0.132619E-0001
     -0.226383E-0001
     -0.321084E-0001
      0.498241E-0001
      0.410786E-0001
      0.322456E-0001
      0.233243E-0001
      0.143138E-0001
      0.521321E-0002
     -0.397841E-0002
     -0.132620E-0001
     -0.226383E-0001
     -0.321085E-0001
</DataArray>
<DataArray Name="RHO" type="Float64" format="ascii" NumberOfComponents="1">
      0.117197E+0001
      0.117197E+0001
      0.117197E+0001
      0.117197E+0001
      0.117197E+0001
      0.117197E+0001
      0.117197E+0001
      0.117197E+0001
      0.117197E+0001
      0.117197E+0001
      0.117197E+0001
      0.117197E+0001
      0.117197E+0001
      0.117197E+0001
      0.117197E+0001
      0.117197E+0001
      0.117197E+0001
      0.117197E+0001
      0.117197E+0001
      0.117197E+0001
      0.117197E+0001
      0.117197E+0001
      0.117197E+0001
      0.117197E+0001
      0.117197E+0001
      0.117197E+0001
      0.117197E+0001
      0.117197E+0001
      0.117197E+0001
      0.117197E+0001
      0.117197E+0001
      0.117197E+0001
      0.117197E+0001
      0.117197E+0001
      0.117197E+0001
      0.117197E+0001
      0.117197E+0001
      0.117197E+0001
      0.117197E+0001
      0.117197E+0001
      0.117197E+0001
      0.117197E+0001
      0.117197E+0001
      0.117197E+0001
      0.117197E+0001
      0.117197E+0001
      0.117197E+0001
      0.117197E+0001
      0.117197E+0001
      0.117197E+0001
      0.117197E+0001
      0.117197E+0001
      0.117197E+0001
      0.117197E+0001
      0.117197E+0001
      0.117197E+0001
      0.117197E+0001
      0.117197E+0001
      0.117197E+0001
      0.117197E+0001
      0.117197E+0001
      0.117197E+0001