<?xml version="1.0"?>
<VTKFile type="StructuredGrid" version="0.1" byte_order="LittleEndian">
<StructuredGrid WholeExtent="           0          10          50          60           0           1">
<Piece Extent="           0          10          50          60           0           1">
<Points>
<DataArray NumberOfComponents="3" type="Float64" format="ascii">
    0.000000E+00    0.123834E-01    0.000000E+00
    0.253324E-03    0.123834E-01    0.000000E+00
    0.509182E-03    0.123834E-01    0.000000E+00
    0.767598E-03    0.123834E-01    0.000000E+00
    0.102860E-02    0.123834E-01    0.000000E+00
    0.129221E-02    0.123834E-01    0.000000E+00
    0.155845E-02    0.123834E-01    0.000000E+00
    0.182736E-02    0.123834E-01    0.000000E+00
    0.209896E-02    0.123834E-01    0.000000E+00
    0.237327E-02    0.123834E-01    0.000000E+00
    0.265033E-02    0.123834E-01    0.000000E+00
    0.000000E+00    0.127657E-01    0.000000E+00
    0.253324E-03    0.127657E-01    0.000000E+00
    0.509182E-03    0.127657E-01    0.000000E+00
    0.767598E-03    0.127657E-01    0.000000E+00
    0.102860E-02    0.127657E-01    0.000000E+00
    0.129221E-02    0.127657E-01    0.000000E+00
    0.155845E-02    0.127657E-01    0.000000E+00
    0.182736E-02    0.127657E-01    0.000000E+00
    0.209896E-02    0.127657E-01    0.000000E+00
    0.237327E-02    0.127657E-01    0.000000E+00
    0.265033E-02    0.127657E-01    0.000000E+00
    0.000000E+00    0.131594E-01    0.000000E+00
    0.253324E-03    0.131594E-01    0.000000E+00
    0.509182E-03    0.131594E-01    0.000000E+00
    0.767598E-03    0.131594E-01    0.000000E+00
    0.102860E-02    0.131594E-01    0.000000E+00
    0.129221E-02    0.131594E-01    0.000000E+00
    0.155845E-02    0.131594E-01    0.000000E+00
    0.182736E-02    0.131594E-01    0.000000E+00
    0.209896E-02    0.131594E-01    0.000000E+00
    0.237327E-02    0.131594E-01    0.000000E+00
    0.265033E-02    0.131594E-01    0.000000E+00
    0.000000E+00    0.135649E-01    0.000000E+00
    0.253324E-03    0.135649E-01    0.000000E+00
    0.509182E-03    0.135649E-01    0.000000E+00
    0.767598E-03    0.135649E-01    0.000000E+00
    0.102860E-02    0.135649E-01    0.000000E+00
    0.129221E-02    0.135649E-01    0.000000E+00
    0.155845E-02    0.135649E-01    0.000000E+00
    0.182736E-02    0.135649E-01    0.000000E+00
    0.209896E-02    0.135649E-01    0.000000E+00
    0.237327E-02    0.135649E-01    0.000000E+00
    0.265033E-02    0.135649E-01    0.000000E+00
    0.000000E+00    0.139826E-01    0.000000E+00
    0.253324E-03    0.139826E-01    0.000000E+00
    0.509182E-03    0.139826E-01    0.000000E+00
    0.767598E-03    0.139826E-01    0.000000E+00
    0.102860E-02    0.139826E-01    0.000000E+00
    0.129221E-02    0.139826E-01    0.000000E+00
    0.155845E-02    0.139826E-01    0.000000E+00
    0.182736E-02    0.139826E-01    0.000000E+00
    0.209896E-02    0.139826E-01    0.000000E+00
    0.237327E-02    0.139826E-01    0.000000E+00
    0.265033E-02    0.139826E-01    0.000000E+00
    0.000000E+00    0.144128E-01    0.000000E+00
    0.253324E-03    0.144128E-01    0.000000E+00
    0.509182E-03    0.144128E-01    0.000000E+00
    0.767598E-03    0.144128E-01    0.000000E+00
    0.102860E-02    0.144128E-01    0.000000E+00
    0.129221E-02    0.144128E-01    0.000000E+00
    0.155845E-02    0.144128E-01    0.000000E+00
    0.182736E-02    0.144128E-01    0.000000E+00
    0.209896E-02    0.144128E-01    0.000000E+00
    0.237327E-02    0.144128E-01    0.000000E+00
    0.265033E-02    0.144128E-01    0.000000E+00
    0.000000E+00    0.148560E-01    0.000000E+00
    0.253324E-03    0.148560E-01    0.000000E+00
    0.509182E-03    0.148560E-01    0.000000E+00
    0.767598E-03    0.148560E-01    0.000000E+00
    0.102860E-02    0.148560E-01    0.000000E+00
    0.129221E-02    0.148560E-01    0.000000E+00
    0.155845E-02    0.148560E-01    0.000000E+00
    0.182736E-02    0.148560E-01    0.000000E+00
    0.209896E-02    0.148560E-01    0.000000E+00
    0.237327E-02    0.148560E-01    0.000000E+00
    0.265033E-02    0.148560E-01    0.000000E+00
    0.000000E+00    0.153124E-01    0.000000E+00
    0.253324E-03    0.153124E-01    0.000000E+00
    0.509182E-03    0.153124E-01    0.000000E+00
    0.767598E-03    0.153124E-01    0.000000E+00
    0.102860E-02    0.153124E-01    0.000000E+00
    0.129221E-02    0.153124E-01    0.000000E+00
    0.155845E-02    0.153124E-01    0.000000E+00
    0.182736E-02    0.153124E-01    0.000000E+00
    0.209896E-02    0.153124E-01    0.000000E+00
    0.237327E-02    0.153124E-01    0.000000E+00
    0.265033E-02    0.153124E-01    0.000000E+00
    0.000000E+00    0.157825E-01    0.000000E+00
    0.253324E-03    0.157825E-01    0.000000E+00
    0.509182E-03    0.157825E-01    0.000000E+00
    0.767598E-03    0.157825E-01    0.000000E+00
    0.102860E-02    0.157825E-01    0.000000E+00
    0.129221E-02    0.157825E-01    0.000000E+00
    0.155845E-02    0.157825E-01    0.000000E+00
    0.182736E-02    0.157825E-01    0.000000E+00
    0.209896E-02    0.157825E-01    0.000000E+00
    0.237327E-02    0.157825E-01    0.000000E+00
    0.265033E-02    0.157825E-01    0.000000E+00
    0.000000E+00    0.162667E-01    0.000000E+00
    0.253324E-03    0.162667E-01    0.000000E+00
    0.509182E-03    0.162667E-01    0.000000E+00
    0.767598E-03    0.162667E-01    0.000000E+00
    0.102860E-02    0.162667E-01    0.000000E+00
    0.129221E-02    0.162667E-01    0.000000E+00
    0.155845E-02    0.162667E-01    0.000000E+00
    0.182736E-02    0.162667E-01    0.000000E+00
    0.209896E-02    0.162667E-01    0.000000E+00
    0.237327E-02    0.162667E-01    0.000000E+00
    0.265033E-02    0.162667E-01    0.000000E+00
    0.000000E+00    0.167655E-01    0.000000E+00
    0.253324E-03    0.167655E-01    0.000000E+00
    0.509182E-03    0.167655E-01    0.000000E+00
    0.767598E-03    0.167655E-01    0.000000E+00
    0.102860E-02    0.167655E-01    0.000000E+00
    0.129221E-02    0.167655E-01    0.000000E+00
    0.155845E-02    0.167655E-01    0.000000E+00
    0.182736E-02    0.167655E-01    0.000000E+00
    0.209896E-02    0.167655E-01    0.000000E+00
    0.237327E-02    0.167655E-01    0.000000E+00
    0.265033E-02    0.167655E-01    0.000000E+00
    0.000000E+00    0.123834E-01    0.160000E-02
    0.253324E-03    0.123834E-01    0.160000E-02
    0.509182E-03    0.123834E-01    0.160000E-02
    0.767598E-03    0.123834E-01    0.160000E-02
    0.102860E-02    0.123834E-01    0.160000E-02
    0.129221E-02    0.123834E-01    0.160000E-02
    0.155845E-02    0.123834E-01    0.160000E-02
    0.182736E-02    0.123834E-01    0.160000E-02
    0.209896E-02    0.123834E-01    0.160000E-02
    0.237327E-02    0.123834E-01    0.160000E-02
    0.265033E-02    0.123834E-01    0.160000E-02
    0.000000E+00    0.127657E-01    0.160000E-02
    0.253324E-03    0.127657E-01    0.160000E-02
    0.509182E-03    0.127657E-01    0.160000E-02
    0.767598E-03    0.127657E-01    0.160000E-02
    0.102860E-02    0.127657E-01    0.160000E-02
    0.129221E-02    0.127657E-01    0.160000E-02
    0.155845E-02    0.127657E-01    0.160000E-02
    0.182736E-02    0.127657E-01    0.160000E-02
    0.209896E-02    0.127657E-01    0.160000E-02
    0.237327E-02    0.127657E-01    0.160000E-02
    0.265033E-02    0.127657E-01    0.160000E-02
    0.000000E+00    0.131594E-01    0.160000E-02
    0.253324E-03    0.131594E-01    0.160000E-02
    0.509182E-03    0.131594E-01    0.160000E-02
    0.767598E-03    0.131594E-01    0.160000E-02
    0.102860E-02    0.131594E-01    0.160000E-02
    0.129221E-02    0.131594E-01    0.160000E-02
    0.155845E-02    0.131594E-01    0.160000E-02
    0.182736E-02    0.131594E-01    0.160000E-02
    0.209896E-02    0.131594E-01    0.160000E-02
    0.237327E-02    0.131594E-01    0.160000E-02
    0.265033E-02    0.131594E-01    0.160000E-02
    0.000000E+00    0.135649E-01    0.160000E-02
    0.253324E-03    0.135649E-01    0.160000E-02
    0.509182E-03    0.135649E-01    0.160000E-02
    0.767598E-03    0.135649E-01    0.160000E-02
    0.102860E-02    0.135649E-01    0.160000E-02
    0.129221E-02    0.135649E-01    0.160000E-02
    0.155845E-02    0.135649E-01    0.160000E-02
    0.182736E-02    0.135649E-01    0.160000E-02
    0.209896E-02    0.135649E-01    0.160000E-02
    0.237327E-02    0.135649E-01    0.160000E-02
    0.265033E-02    0.135649E-01    0.160000E-02
    0.000000E+00    0.139826E-01    0.160000E-02
    0.253324E-03    0.139826E-01    0.160000E-02
    0.509182E-03    0.139826E-01    0.160000E-02
    0.767598E-03    0.139826E-01    0.160000E-02
    0.102860E-02    0.139826E-01    0.160000E-02
    0.129221E-02    0.139826E-01    0.160000E-02
    0.155845E-02    0.139826E-01    0.160000E-02
    0.182736E-02    0.139826E-01    0.160000E-02
    0.209896E-02    0.139826E-01    0.160000E-02
    0.237327E-02    0.139826E-01    0.160000E-02
    0.265033E-02    0.139826E-01    0.160000E-02
    0.000000E+00    0.144128E-01    0.160000E-02
    0.253324E-03    0.144128E-01    0.160000E-02
    0.509182E-03    0.144128E-01    0.160000E-02
    0.767598E-03    0.144128E-01    0.160000E-02
    0.102860E-02    0.144128E-01    0.160000E-02
    0.129221E-02    0.144128E-01    0.160000E-02
    0.155845E-02    0.144128E-01    0.160000E-02
    0.182736E-02    0.144128E-01    0.160000E-02
    0.209896E-02    0.144128E-01    0.160000E-02
    0.237327E-02    0.144128E-01    0.160000E-02
    0.265033E-02    0.144128E-01    0.160000E-02
    0.000000E+00    0.148560E-01    0.160000E-02
    0.253324E-03    0.148560E-01    0.160000E-02
    0.509182E-03    0.148560E-01    0.160000E-02
    0.767598E-03    0.148560E-01    0.160000E-02
    0.102860E-02    0.148560E-01    0.160000E-02
    0.129221E-02    0.148560E-01    0.160000E-02
    0.155845E-02    0.148560E-01    0.160000E-02
    0.182736E-02    0.148560E-01    0.160000E-02
    0.209896E-02    0.148560E-01    0.160000E-02
    0.237327E-02    0.148560E-01    0.160000E-02
    0.265033E-02    0.148560E-01    0.160000E-02
    0.000000E+00    0.153124E-01    0.160000E-02
    0.253324E-03    0.153124E-01    0.160000E-02
    0.509182E-03    0.153124E-01    0.160000E-02
    0.767598E-03    0.153124E-01    0.160000E-02
    0.102860E-02    0.153124E-01    0.160000E-02
    0.129221E-02    0.153124E-01    0.160000E-02
    0.155845E-02    0.153124E-01    0.160000E-02
    0.182736E-02    0.153124E-01    0.160000E-02
    0.209896E-02    0.153124E-01    0.160000E-02
    0.237327E-02    0.153124E-01    0.160000E-02
    0.265033E-02    0.153124E-01    0.160000E-02
    0.000000E+00    0.157825E-01    0.160000E-02
    0.253324E-03    0.157825E-01    0.160000E-02
    0.509182E-03    0.157825E-01    0.160000E-02
    0.767598E-03    0.157825E-01    0.160000E-02
    0.102860E-02    0.157825E-01    0.160000E-02
    0.129221E-02    0.157825E-01    0.160000E-02
    0.155845E-02    0.157825E-01    0.160000E-02
    0.182736E-02    0.157825E-01    0.160000E-02
    0.209896E-02    0.157825E-01    0.160000E-02
    0.237327E-02    0.157825E-01    0.160000E-02
    0.265033E-02    0.157825E-01    0.160000E-02
    0.000000E+00    0.162667E-01    0.160000E-02
    0.253324E-03    0.162667E-01    0.160000E-02
    0.509182E-03    0.162667E-01    0.160000E-02
    0.767598E-03    0.162667E-01    0.160000E-02
    0.102860E-02    0.162667E-01    0.160000E-02
    0.129221E-02    0.162667E-01    0.160000E-02
    0.155845E-02    0.162667E-01    0.160000E-02
    0.182736E-02    0.162667E-01    0.160000E-02
    0.209896E-02    0.162667E-01    0.160000E-02
    0.237327E-02    0.162667E-01    0.160000E-02
    0.265033E-02    0.162667E-01    0.160000E-02
    0.000000E+00    0.167655E-01    0.160000E-02
    0.253324E-03    0.167655E-01    0.160000E-02
    0.509182E-03    0.167655E-01    0.160000E-02
    0.767598E-03    0.167655E-01    0.160000E-02
    0.102860E-02    0.167655E-01    0.160000E-02
    0.129221E-02    0.167655E-01    0.160000E-02
    0.155845E-02    0.167655E-01    0.160000E-02
    0.182736E-02    0.167655E-01    0.160000E-02
    0.209896E-02    0.167655E-01    0.160000E-02
    0.237327E-02    0.167655E-01    0.160000E-02
    0.265033E-02    0.167655E-01    0.160000E-02
</DataArray>
</Points>
<PointData>
<DataArray Name="Velocity" type="Float64" format="ascii" NumberOfComponents="3">
    0.890000E-01   -0.542567E-04    0.000000E+00
    0.889710E-01   -0.409730E-03    0.000000E+00
    0.889165E-01   -0.793157E-03    0.000000E+00
    0.888462E-01   -0.117315E-02    0.000000E+00
    0.887629E-01   -0.155457E-02    0.000000E+00
    0.886673E-01   -0.193711E-02    0.000000E+00
    0.885593E-01   -0.231915E-02    0.000000E+00
    0.884387E-01   -0.269868E-02    0.000000E+00
    0.883056E-01   -0.307368E-02    0.000000E+00
    0.881600E-01   -0.344211E-02    0.000000E+00
    0.880022E-01   -0.380197E-02    0.000000E+00
    0.890000E-01   -0.353103E-04    0.000000E+00
    0.889770E-01   -0.309305E-03    0.000000E+00
    0.889308E-01   -0.655425E-03    0.000000E+00
    0.888692E-01   -0.101240E-02    0.000000E+00
    0.887949E-01   -0.137236E-02    0.000000E+00
    0.887088E-01   -0.173239E-02    0.000000E+00
    0.886110E-01   -0.209079E-02    0.000000E+00
    0.885017E-01   -0.244609E-02    0.000000E+00
    0.883808E-01   -0.279676E-02    0.000000E+00
    0.882485E-01   -0.314119E-02    0.000000E+00
    0.881049E-01   -0.347774E-02    0.000000E+00
    0.890000E-01   -0.347827E-04    0.000000E+00
    0.890007E-01   -0.287003E-03    0.000000E+00
    0.889874E-01   -0.591975E-03    0.000000E+00
    0.889573E-01   -0.909577E-03    0.000000E+00
    0.889108E-01   -0.123458E-02    0.000000E+00
    0.888491E-01   -0.156309E-02    0.000000E+00
    0.887731E-01   -0.189230E-02    0.000000E+00
    0.886835E-01   -0.221998E-02    0.000000E+00
    0.885810E-01   -0.254424E-02    0.000000E+00
    0.884659E-01   -0.286334E-02    0.000000E+00
    0.883388E-01   -0.317562E-02    0.000000E+00
    0.890000E-01   -0.337759E-04    0.000000E+00
    0.889990E-01   -0.272445E-03    0.000000E+00
    0.889912E-01   -0.552470E-03    0.000000E+00
    0.889728E-01   -0.839930E-03    0.000000E+00
    0.889421E-01   -0.113329E-02    0.000000E+00
    0.888983E-01   -0.143045E-02    0.000000E+00
    0.888411E-01   -0.172932E-02    0.000000E+00
    0.887707E-01   -0.202787E-02    0.000000E+00
    0.886873E-01   -0.232425E-02    0.000000E+00
    0.885912E-01   -0.261671E-02    0.000000E+00
    0.884826E-01   -0.290358E-02    0.000000E+00
    0.890000E-01   -0.319324E-04    0.000000E+00
    0.889976E-01   -0.256255E-03    0.000000E+00
    0.889893E-01   -0.516682E-03    0.000000E+00
    0.889735E-01   -0.781198E-03    0.000000E+00
    0.889486E-01   -0.104927E-02    0.000000E+00
    0.889136E-01   -0.131985E-02    0.000000E+00
    0.888676E-01   -0.159164E-02    0.000000E+00
    0.888103E-01   -0.186318E-02    0.000000E+00
    0.887414E-01   -0.213299E-02    0.000000E+00
    0.886608E-01   -0.239954E-02    0.000000E+00
    0.885685E-01   -0.266137E-02    0.000000E+00
    0.890000E-01   -0.298429E-04    0.000000E+00
    0.889973E-01   -0.239227E-03    0.000000E+00
    0.889888E-01   -0.481487E-03    0.000000E+00
    0.889737E-01   -0.726269E-03    0.000000E+00
    0.889513E-01   -0.973067E-03    0.000000E+00
    0.889206E-01   -0.122114E-02    0.000000E+00
    0.888810E-01   -0.146956E-02    0.000000E+00
    0.888319E-01   -0.171726E-02    0.000000E+00
    0.887728E-01   -0.196309E-02    0.000000E+00
    0.887034E-01   -0.220582E-02    0.000000E+00
    0.886235E-01   -0.244422E-02    0.000000E+00
    0.890000E-01   -0.277778E-04    0.000000E+00
    0.889974E-01   -0.222578E-03    0.000000E+00
    0.889894E-01   -0.447609E-03    0.000000E+00
    0.889754E-01   -0.674326E-03    0.000000E+00
    0.889550E-01   -0.902113E-03    0.000000E+00
    0.889274E-01   -0.113027E-02    0.000000E+00
    0.888921E-01   -0.135802E-02    0.000000E+00
    0.888485E-01   -0.158451E-02    0.000000E+00
    0.887961E-01   -0.180880E-02    0.000000E+00
    0.887348E-01   -0.202991E-02    0.000000E+00
    0.886641E-01   -0.224683E-02    0.000000E+00
    0.890000E-01   -0.258570E-04    0.000000E+00
    0.889978E-01   -0.207083E-03    0.000000E+00
    0.889908E-01   -0.416085E-03    0.000000E+00
    0.889785E-01   -0.626047E-03    0.000000E+00
    0.889602E-01   -0.836275E-03    0.000000E+00
    0.889354E-01   -0.104611E-02    0.000000E+00
    0.889034E-01   -0.125488E-02    0.000000E+00
    0.888638E-01   -0.146191E-02    0.000000E+00
    0.888163E-01   -0.166645E-02    0.000000E+00
    0.887606E-01   -0.186772E-02    0.000000E+00
    0.886965E-01   -0.206486E-02    0.000000E+00
    0.890000E-01   -0.241931E-04    0.000000E+00
    0.889986E-01   -0.193444E-03    0.000000E+00
    0.889931E-01   -0.387837E-03    0.000000E+00
    0.889825E-01   -0.582049E-03    0.000000E+00
    0.889660E-01   -0.775503E-03    0.000000E+00
    0.889429E-01   -0.967767E-03    0.000000E+00
    0.889128E-01   -0.115843E-02    0.000000E+00
    0.888755E-01   -0.134701E-02    0.000000E+00
    0.888307E-01   -0.153299E-02    0.000000E+00
    0.887785E-01   -0.171573E-02    0.000000E+00
    0.887186E-01   -0.189456E-02    0.000000E+00
    0.890000E-01   -0.230380E-04    0.000000E+00
    0.889999E-01   -0.182576E-03    0.000000E+00
    0.889950E-01   -0.363055E-03    0.000000E+00
    0.889839E-01   -0.541191E-03    0.000000E+00
    0.889660E-01   -0.717399E-03    0.000000E+00
    0.889414E-01   -0.891934E-03    0.000000E+00
    0.889100E-01   -0.106478E-02    0.000000E+00
    0.888720E-01   -0.123571E-02    0.000000E+00
    0.888274E-01   -0.140430E-02    0.000000E+00
    0.887764E-01   -0.157000E-02    0.000000E+00
    0.887189E-01   -0.173222E-02    0.000000E+00
    0.890000E-01   -0.226937E-04    0.000000E+00
    0.889936E-01   -0.172949E-03    0.000000E+00
    0.889789E-01   -0.335456E-03    0.000000E+00
    0.889580E-01   -0.494481E-03    0.000000E+00
    0.889318E-01   -0.652447E-03    0.000000E+00
    0.889009E-01   -0.809908E-03    0.000000E+00
    0.888654E-01   -0.966677E-03    0.000000E+00
    0.888253E-01   -0.112228E-02    0.000000E+00
    0.887805E-01   -0.127611E-02    0.000000E+00
    0.887310E-01   -0.142753E-02    0.000000E+00
    0.886767E-01   -0.157588E-02    0.000000E+00
    0.890000E-01    0.000000E+00    0.000000E+00
    0.889769E-01   -0.409730E-03    0.100355E-18
    0.889284E-01   -0.793157E-03    0.194268E-18
    0.888623E-01   -0.117315E-02    0.287339E-18
    0.887815E-01   -0.155457E-02    0.380759E-18
    0.886869E-01   -0.193711E-02    0.474456E-18
    0.885788E-01   -0.231915E-02    0.568027E-18
    0.884574E-01   -0.269868E-02    0.660987E-18
    0.883228E-01   -0.307368E-02    0.752835E-18
    0.881752E-01   -0.344211E-02    0.843074E-18
    0.880149E-01   -0.380197E-02    0.931215E-18
    0.890000E-01    0.000000E+00    0.000000E+00
    0.889770E-01   -0.309305E-03    0.757578E-19
    0.889308E-01   -0.655425E-03    0.160533E-18
    0.888692E-01   -0.101240E-02    0.247967E-18
    0.887949E-01   -0.137236E-02    0.336132E-18
    0.887088E-01   -0.173239E-02    0.424313E-18
    0.886110E-01   -0.209079E-02    0.512097E-18
    0.885017E-01   -0.244609E-02    0.599120E-18
    0.883808E-01   -0.279676E-02    0.685008E-18
    0.882485E-01   -0.314119E-02    0.769370E-18
    0.881049E-01   -0.347774E-02    0.851800E-18
    0.890000E-01    0.000000E+00    0.000000E+00
    0.890007E-01   -0.287003E-03    0.702954E-19
    0.889874E-01   -0.591975E-03    0.144992E-18
    0.889573E-01   -0.909577E-03    0.222782E-18
    0.889108E-01   -0.123458E-02    0.302384E-18
    0.888491E-01   -0.156309E-02    0.382848E-18
    0.887731E-01   -0.189230E-02    0.463480E-18
    0.886835E-01   -0.221998E-02    0.543738E-18
    0.885810E-01   -0.254424E-02    0.623158E-18
    0.884659E-01   -0.286334E-02    0.701316E-18
    0.883388E-01   -0.317562E-02    0.777804E-18
    0.890000E-01    0.000000E+00    0.000000E+00
    0.889990E-01   -0.272445E-03    0.667299E-19
    0.889912E-01   -0.552470E-03    0.135316E-18
    0.889728E-01   -0.839930E-03    0.205724E-18
    0.889421E-01   -0.113329E-02    0.277575E-18
    0.888983E-01   -0.143045E-02    0.350360E-18
    0.888411E-01   -0.172932E-02    0.423560E-18
    0.887707E-01   -0.202787E-02    0.496685E-18
    0.886873E-01   -0.232425E-02    0.569277E-18
    0.885912E-01   -0.261671E-02    0.640909E-18
    0.884826E-01   -0.290358E-02    0.711173E-18
    0.890000E-01    0.000000E+00    0.000000E+00
    0.889976E-01   -0.256255E-03    0.627643E-19
    0.889893E-01   -0.516682E-03    0.126551E-18
    0.889735E-01   -0.781198E-03    0.191338E-18
    0.889486E-01   -0.104927E-02    0.256996E-18
    0.889136E-01   -0.131985E-02    0.323270E-18
    0.888676E-01   -0.159164E-02    0.389839E-18
    0.888103E-01   -0.186318E-02    0.456348E-18
    0.887414E-01   -0.213299E-02    0.522431E-18
    0.886608E-01   -0.239954E-02    0.587719E-18
    0.885685E-01   -0.266137E-02    0.651848E-18
    0.890000E-01    0.000000E+00    0.000000E+00
    0.889973E-01   -0.239227E-03    0.585938E-19
    0.889888E-01   -0.481487E-03    0.117930E-18
    0.889737E-01   -0.726269E-03    0.177885E-18
    0.889513E-01   -0.973067E-03    0.238333E-18
    0.889206E-01   -0.122114E-02    0.299094E-18
    0.888810E-01   -0.146956E-02    0.359939E-18
    0.888319E-01   -0.171726E-02    0.420608E-18
    0.887728E-01   -0.196309E-02    0.480818E-18
    0.887034E-01   -0.220582E-02    0.540270E-18
    0.886235E-01   -0.244422E-02    0.598661E-18
    0.890000E-01    0.000000E+00    0.000000E+00
    0.889974E-01   -0.222578E-03    0.545160E-19
    0.889894E-01   -0.447609E-03    0.109633E-18
    0.889754E-01   -0.674326E-03    0.165162E-18
    0.889550E-01   -0.902113E-03    0.220954E-18
    0.889274E-01   -0.113027E-02    0.276837E-18
    0.888921E-01   -0.135802E-02    0.332619E-18
    0.888485E-01   -0.158451E-02    0.388092E-18
    0.887961E-01   -0.180880E-02    0.443027E-18
    0.887348E-01   -0.202991E-02    0.497185E-18
    0.886641E-01   -0.224683E-02    0.550314E-18
    0.890000E-01    0.000000E+00    0.000000E+00
    0.889978E-01   -0.207083E-03    0.507207E-19
    0.889908E-01   -0.416085E-03    0.101911E-18
    0.889785E-01   -0.626047E-03    0.153337E-18
    0.889602E-01   -0.836275E-03    0.204828E-18
    0.889354E-01   -0.104611E-02    0.256223E-18
    0.889034E-01   -0.125488E-02    0.307358E-18
    0.888638E-01   -0.146191E-02    0.358065E-18
    0.888163E-01   -0.166645E-02    0.408163E-18
    0.887606E-01   -0.186772E-02    0.457458E-18
    0.886965E-01   -0.206486E-02    0.505745E-18
    0.890000E-01    0.000000E+00    0.000000E+00
    0.889986E-01   -0.193444E-03    0.473801E-19
    0.889931E-01   -0.387837E-03    0.949926E-19
    0.889825E-01   -0.582049E-03    0.142561E-18
    0.889660E-01   -0.775503E-03    0.189944E-18
    0.889429E-01   -0.967767E-03    0.237035E-18
    0.889128E-01   -0.115843E-02    0.283732E-18
    0.888755E-01   -0.134701E-02    0.329923E-18
    0.888307E-01   -0.153299E-02    0.375474E-18
    0.887785E-01   -0.171573E-02    0.420233E-18
    0.887186E-01   -0.189456E-02    0.464034E-18
    0.890000E-01    0.000000E+00    0.000000E+00
    0.889999E-01   -0.182576E-03    0.447181E-19
    0.889950E-01   -0.363055E-03    0.889227E-19
    0.889839E-01   -0.541191E-03    0.132554E-18
    0.889660E-01   -0.717399E-03    0.175712E-18
    0.889414E-01   -0.891934E-03    0.218461E-18
    0.889100E-01   -0.106478E-02    0.260797E-18
    0.888720E-01   -0.123571E-02    0.302662E-18
    0.888274E-01   -0.140430E-02    0.343953E-18
    0.887764E-01   -0.157000E-02    0.384540E-18
    0.887189E-01   -0.173222E-02    0.424271E-18
    0.890000E-01    0.000000E+00    0.000000E+00
    0.889936E-01   -0.172949E-03    0.423602E-19
    0.889789E-01   -0.335456E-03    0.821630E-19
    0.889580E-01   -0.494481E-03    0.121113E-18
    0.889318E-01   -0.652447E-03    0.159804E-18
    0.889009E-01   -0.809908E-03    0.198370E-18
    0.888654E-01   -0.966677E-03    0.236768E-18
    0.888253E-01   -0.112228E-02    0.274878E-18
    0.887805E-01   -0.127611E-02    0.312557E-18
    0.887310E-01   -0.142753E-02    0.349645E-18
    0.886767E-01   -0.157588E-02    0.385979E-18
</DataArray>
</PointData>
<CellData>
<DataArray Name="DP" type="Float64" format="ascii" NumberOfComponents="1">
      0.000000E+0000
      0.000000E+0000
      0.000000E+0000
      0.000000E+0000
      0.000000E+0000
      0.000000E+0000
      0.000000E+0000
      0.000000E+0000
      0.000000E+0000
      0.000000E+0000
      0.000000E+0000
      0.000000E+0000
      0.000000E+0000
      0.000000E+0000
      0.000000E+0000
      0.000000E+0000
      0.000000E+0000
      0.000000E+0000
      0.000000E+0000
      0.000000E+0000
      0.000000E+0000
      0.000000E+0000
      0.000000E+0000
      0.000000E+0000
      0.000000E+0000
      0.000000E+0000
      0.000000E+0000
      0.000000E+0000
      0.000000E+0000
      0.000000E+0000
      0.000000E+0000
      0.000000E+0000
      0.000000E+0000
      0.000000E+0000
      0.000000E+0000
      0.000000E+0000
      0.000000E+0000
      0.000000E+0000
      0.000000E+0000
      0.000000E+0000
      0.000000E+0000
      0.000000E+0000
      0.000000E+0000
      0.000000E+0000
      0.000000E+0000
      0.000000E+0000
      0.000000E+0000
      0.000000E+0000
      0.000000E+0000
      0.000000E+0000
      0.000000E+0000
      0.000000E+0000
      0.000000E+0000
      0.000000E+0000
      0.000000E+0000
      0.000000E+0000
      0.000000E+0000
      0.000000E+0000
      0.000000E+0000
      0.000000E+0000
      0.000000E+0000
      0.000000E+0000
      0.000000E+0000
      0.000000E+0000
      0.000000E+0000
      0.000000E+0000
      0.000000E+0000
      0.000000E+0000
      0.000000E+0000
      0.000000E+0000
      0.000000E+0000
      0.000000E+0000
      0.000000E+0000
      0.000000E+0000
      0.000000E+0000
      0.000000E+0000
      0.000000E+0000
      0.000000E+0000
      0.000000E+0000
      0.000000E+0000
      0.000000E+0000
      0.000000E+0000
      0.000000E+0000
      0.000000E+0000
      0.000000E+0000
      0.000000E+0000
      0.000000E+0000
      0.000000E+0000
      0.000000E+0000
      0.000000E+0000
      0.000000E+0000
      0.000000E+0000
      0.000000E+0000
      0.000000E+0000
      0.000000E+0000
      0.000000E+0000
      0.000000E+0000
      0.000000E+0000
      0.000000E+0000
      0.000000E+0000
</DataArray>
<DataArray Name="P" type="Float64" format="ascii" NumberOfComponents="1">
      0.630758E+0000
      0.627820E+0000
      0.624859E+0000
      0.621872E+0000
      0.618858E+0000
      0.615816E+0000
      0.612745E+0000
      0.609645E+0000
      0.606516E+0000
      0.603357E+0000
      0.630798E+0000
      0.627869E+0000
      0.624912E+0000
      0.621926E+0000
      0.618912E+0000
      0.615869E+0000
      0.612798E+0000
      0.609697E+0000
      0.606567E+0000
      0.603407E+0000
      0.630844E+0000
      0.627917E+0000
      0.624961E+0000
      0.621976E+0000
      0.618962E+0000
      0.615919E+0000
      0.612848E+0000
      0.609746E+0000
      0.606616E+0000
      0.603454E+0000
      0.630890E+0000
      0.627963E+0000
      0.625007E+0000
      0.622023E+0000
      0.619009E+0000
      0.615967E+0000
      0.612895E+0000
      0.609793E+0000
      0.606661E+0000
      0.603499E+0000
      0.630935E+0000
      0.628008E+0000
      0.625052E+0000
      0.622068E+0000
      0.619054E+0000
      0.616012E+0000
      0.612939E+0000
      0.609837E+0000
      0.606705E+0000
      0.603542E+0000
      0.630978E+0000
      0.628051E+0000
      0.625096E+0000
      0.622111E+0000
      0.619097E+0000
      0.616054E+0000
      0.612982E+0000
      0.609879E+0000
      0.606746E+0000
      0.603583E+0000
      0.631019E+0000
      0.628092E+0000
      0.625137E+0000
      0.622152E+0000
      0.619138E+0000
      0.616095E+0000
      0.613022E+0000
      0.609919E+0000
      0.606786E+0000
      0.603622E+0000
      0.631059E+0000
      0.628132E+0000
      0.625177E+0000
      0.622192E+0000
      0.619178E+0000
      0.616134E+0000
      0.613061E+0000
      0.609957E+0000
      0.606823E+0000
      0.603659E+0000
      0.631098E+0000
      0.628171E+0000
      0.625215E+0000
      0.622230E+0000
      0.619215E+0000
      0.616171E+0000
      0.613097E+0000
      0.609993E+0000
      0.606859E+0000
      0.603694E+0000
      0.631135E+0000
      0.628208E+0000
      0.625251E+0000
      0.622266E+0000
      0.619251E+0000
      0.616206E+0000
      0.613132E+0000
      0.610028E+0000
      0.606893E+0000
      0.603727E+0000
</DataArray>
<DataArray Name="RHO" type="Float64" format="ascii" NumberOfComponents="1">
      0.117197E+0001
      0.117197E+0001
      0.117197E+0001
      0.117197E+0001
      0.117197E+0001
      0.117197E+0001
      0.117197E+0001
      0.117197E+0001
      0.117197E+0001
      0.117197E+0001
      0.117197E+0001
      0.117197E+0001
      0.117197E+0001
      0.117197E+0001
      0.117197E+0001
      0.117197E+0001
      0.117197E+0001
      0.117197E+0001
      0.117197E+0001
      0.117197E+0001
      0.117197E+0001
      0.117197E+0001
      0.117197E+0001
      0.117197E+0001
      0.117197E+0001
      0.117197E+0001
      0.117197E+0001
      0.117197E+0001
      0.117197E+0001
      0.117197E+0001
      0.117197E+0001
      0.117197E+0001
      0.117197E+0001
      0.117197E+0001
      0.117197E+0001
      0.117197E+0001
      0.117197E+0001
      0.117197E+0001
      0.117197E+0001
      0.117197E+0001
      0.117197E+0001
      0.117197E+0001
      0.117197E+0001
      0.117197E+0001
      0.117197E+0001
      0.117197E+0001
      0.117197E+0001
      0.117197E+0001
      0.117197E+0001
      0.117197E+0001
      0.117197E+0001
      0.117197E+0001
      0.117197E+0001
      0.117197E+0001
      0.117197E+0001
      0.117197E+0001
      0.117197E+0001
      0.117197E+0001
      0.117197E+0001
      0.117197E+0001
      0.117197E+0001
      0.117197E+0001