<?xml version="1.0"?>
<VTKFile type="StructuredGrid" version="0.1" byte_order="LittleEndian">
<StructuredGrid WholeExtent="          50          60           0          10           0           1">
<Piece Extent="          50          60           0          10           0           1">
<Points>
<DataArray NumberOfComponents="3" type="Float64" format="ascii">
    0.163301E-01    0.000000E+00    0.000000E+00
    0.167467E-01    0.000000E+00    0.000000E+00
    0.171675E-01    0.000000E+00    0.000000E+00
    0.175925E-01    0.000000E+00    0.000000E+00
    0.180217E-01    0.000000E+00    0.000000E+00
    0.184553E-01    0.000000E+00    0.000000E+00
    0.188932E-01    0.000000E+00    0.000000E+00
    0.193354E-01    0.000000E+00    0.000000E+00
    0.197821E-01    0.000000E+00    0.000000E+00
    0.202332E-01    0.000000E+00    0.000000E+00
    0.206889E-01    0.000000E+00    0.000000E+00
    0.163301E-01    0.288897E-03    0.000000E+00
    0.167467E-01    0.288897E-03    0.000000E+00
    0.171675E-01    0.288897E-03    0.000000E+00
    0.175925E-01    0.288897E-03    0.000000E+00
    0.180217E-01    0.288897E-03    0.000000E+00
    0.184553E-01    0.288897E-03    0.000000E+00
    0.188932E-01    0.288897E-03    0.000000E+00
    0.193354E-01    0.288897E-03    0.000000E+00
    0.197821E-01    0.288897E-03    0.000000E+00
    0.202332E-01    0.288897E-03    0.000000E+00
    0.206889E-01    0.288897E-03    0.000000E+00
    0.163301E-01    0.572017E-03    0.000000E+00
    0.167467E-01    0.572017E-03    0.000000E+00
    0.171675E-01    0.572017E-03    0.000000E+00
    0.175925E-01    0.572017E-03    0.000000E+00
    0.180217E-01    0.572017E-03    0.000000E+00
    0.184553E-01    0.572017E-03    0.000000E+00
    0.188932E-01    0.572017E-03    0.000000E+00
    0.193354E-01    0.572017E-03    0.000000E+00
    0.197821E-01    0.572017E-03    0.000000E+00
    0.202332E-01    0.572017E-03    0.000000E+00
    0.206889E-01    0.572017E-03    0.000000E+00
    0.163301E-01    0.849473E-03    0.000000E+00
    0.167467E-01    0.849473E-03    0.000000E+00
    0.171675E-01    0.849473E-03    0.000000E+00
    0.175925E-01    0.849473E-03    0.000000E+00
    0.180217E-01    0.849473E-03    0.000000E+00
    0.184553E-01    0.849473E-03    0.000000E+00
    0.188932E-01    0.849473E-03    0.000000E+00
    0.193354E-01    0.849473E-03    0.000000E+00
    0.197821E-01    0.849473E-03    0.000000E+00
    0.202332E-01    0.849473E-03    0.000000E+00
    0.206889E-01    0.849473E-03    0.000000E+00
    0.163301E-01    0.112138E-02    0.000000E+00
    0.167467E-01    0.112138E-02    0.000000E+00
    0.171675E-01    0.112138E-02    0.000000E+00
    0.175925E-01    0.112138E-02    0.000000E+00
    0.180217E-01    0.112138E-02    0.000000E+00
    0.184553E-01    0.112138E-02    0.000000E+00
    0.188932E-01    0.112138E-02    0.000000E+00
    0.193354E-01    0.112138E-02    0.000000E+00
    0.197821E-01    0.112138E-02    0.000000E+00
    0.202332E-01    0.112138E-02    0.000000E+00
    0.206889E-01    0.112138E-02    0.000000E+00
    0.163301E-01    0.138785E-02    0.000000E+00
    0.167467E-01    0.138785E-02    0.000000E+00
    0.171675E-01    0.138785E-02    0.000000E+00
    0.175925E-01    0.138785E-02    0.000000E+00
    0.180217E-01    0.138785E-02    0.000000E+00
    0.184553E-01    0.138785E-02    0.000000E+00
    0.188932E-01    0.138785E-02    0.000000E+00
    0.193354E-01    0.138785E-02    0.000000E+00
    0.197821E-01    0.138785E-02    0.000000E+00
    0.202332E-01    0.138785E-02    0.000000E+00
    0.206889E-01    0.138785E-02    0.000000E+00
    0.163301E-01    0.164899E-02    0.000000E+00
    0.167467E-01    0.164899E-02    0.000000E+00
    0.171675E-01    0.164899E-02    0.000000E+00
    0.175925E-01    0.164899E-02    0.000000E+00
    0.180217E-01    0.164899E-02    0.000000E+00
    0.184553E-01    0.164899E-02    0.000000E+00
    0.188932E-01    0.164899E-02    0.000000E+00
    0.193354E-01    0.164899E-02    0.000000E+00
    0.197821E-01    0.164899E-02    0.000000E+00
    0.202332E-01    0.164899E-02    0.000000E+00
    0.206889E-01    0.164899E-02    0.000000E+00
    0.163301E-01    0.190491E-02    0.000000E+00
    0.167467E-01    0.190491E-02    0.000000E+00
    0.171675E-01    0.190491E-02    0.000000E+00
    0.175925E-01    0.190491E-02    0.000000E+00
    0.180217E-01    0.190491E-02    0.000000E+00
    0.184553E-01    0.190491E-02    0.000000E+00
    0.188932E-01    0.190491E-02    0.000000E+00
    0.193354E-01    0.190491E-02    0.000000E+00
    0.197821E-01    0.190491E-02    0.000000E+00
    0.202332E-01    0.190491E-02    0.000000E+00
    0.206889E-01    0.190491E-02    0.000000E+00
    0.163301E-01    0.215571E-02    0.000000E+00
    0.167467E-01    0.215571E-02    0.000000E+00
    0.171675E-01    0.215571E-02    0.000000E+00
    0.175925E-01    0.215571E-02    0.000000E+00
    0.180217E-01    0.215571E-02    0.000000E+00
    0.184553E-01    0.215571E-02    0.000000E+00
    0.188932E-01    0.215571E-02    0.000000E+00
    0.193354E-01    0.215571E-02    0.000000E+00
    0.197821E-01    0.215571E-02    0.000000E+00
    0.202332E-01    0.215571E-02    0.000000E+00
    0.206889E-01    0.215571E-02    0.000000E+00
    0.163301E-01    0.240149E-02    0.000000E+00
    0.167467E-01    0.240149E-02    0.000000E+00
    0.171675E-01    0.240149E-02    0.000000E+00
    0.175925E-01    0.240149E-02    0.000000E+00
    0.180217E-01    0.240149E-02    0.000000E+00
    0.184553E-01    0.240149E-02    0.000000E+00
    0.188932E-01    0.240149E-02    0.000000E+00
    0.193354E-01    0.240149E-02    0.000000E+00
    0.197821E-01    0.240149E-02    0.000000E+00
    0.202332E-01    0.240149E-02    0.000000E+00
    0.206889E-01    0.240149E-02    0.000000E+00
    0.163301E-01    0.264236E-02    0.000000E+00
    0.167467E-01    0.264236E-02    0.000000E+00
    0.171675E-01    0.264236E-02    0.000000E+00
    0.175925E-01    0.264236E-02    0.000000E+00
    0.180217E-01    0.264236E-02    0.000000E+00
    0.184553E-01    0.264236E-02    0.000000E+00
    0.188932E-01    0.264236E-02    0.000000E+00
    0.193354E-01    0.264236E-02    0.000000E+00
    0.197821E-01    0.264236E-02    0.000000E+00
    0.202332E-01    0.264236E-02    0.000000E+00
    0.206889E-01    0.264236E-02    0.000000E+00
    0.163301E-01    0.000000E+00    0.160000E-02
    0.167467E-01    0.000000E+00    0.160000E-02
    0.171675E-01    0.000000E+00    0.160000E-02
    0.175925E-01    0.000000E+00    0.160000E-02
    0.180217E-01    0.000000E+00    0.160000E-02
    0.184553E-01    0.000000E+00    0.160000E-02
    0.188932E-01    0.000000E+00    0.160000E-02
    0.193354E-01    0.000000E+00    0.160000E-02
    0.197821E-01    0.000000E+00    0.160000E-02
    0.202332E-01    0.000000E+00    0.160000E-02
    0.206889E-01    0.000000E+00    0.160000E-02
    0.163301E-01    0.288897E-03    0.160000E-02
    0.167467E-01    0.288897E-03    0.160000E-02
    0.171675E-01    0.288897E-03    0.160000E-02
    0.175925E-01    0.288897E-03    0.160000E-02
    0.180217E-01    0.288897E-03    0.160000E-02
    0.184553E-01    0.288897E-03    0.160000E-02
    0.188932E-01    0.288897E-03    0.160000E-02
    0.193354E-01    0.288897E-03    0.160000E-02
    0.197821E-01    0.288897E-03    0.160000E-02
    0.202332E-01    0.288897E-03    0.160000E-02
    0.206889E-01    0.288897E-03    0.160000E-02
    0.163301E-01    0.572017E-03    0.160000E-02
    0.167467E-01    0.572017E-03    0.160000E-02
    0.171675E-01    0.572017E-03    0.160000E-02
    0.175925E-01    0.572017E-03    0.160000E-02
    0.180217E-01    0.572017E-03    0.160000E-02
    0.184553E-01    0.572017E-03    0.160000E-02
    0.188932E-01    0.572017E-03    0.160000E-02
    0.193354E-01    0.572017E-03    0.160000E-02
    0.197821E-01    0.572017E-03    0.160000E-02
    0.202332E-01    0.572017E-03    0.160000E-02
    0.206889E-01    0.572017E-03    0.160000E-02
    0.163301E-01    0.849473E-03    0.160000E-02
    0.167467E-01    0.849473E-03    0.160000E-02
    0.171675E-01    0.849473E-03    0.160000E-02
    0.175925E-01    0.849473E-03    0.160000E-02
    0.180217E-01    0.849473E-03    0.160000E-02
    0.184553E-01    0.849473E-03    0.160000E-02
    0.188932E-01    0.849473E-03    0.160000E-02
    0.193354E-01    0.849473E-03    0.160000E-02
    0.197821E-01    0.849473E-03    0.160000E-02
    0.202332E-01    0.849473E-03    0.160000E-02
    0.206889E-01    0.849473E-03    0.160000E-02
    0.163301E-01    0.112138E-02    0.160000E-02
    0.167467E-01    0.112138E-02    0.160000E-02
    0.171675E-01    0.112138E-02    0.160000E-02
    0.175925E-01    0.112138E-02    0.160000E-02
    0.180217E-01    0.112138E-02    0.160000E-02
    0.184553E-01    0.112138E-02    0.160000E-02
    0.188932E-01    0.112138E-02    0.160000E-02
    0.193354E-01    0.112138E-02    0.160000E-02
    0.197821E-01    0.112138E-02    0.160000E-02
    0.202332E-01    0.112138E-02    0.160000E-02
    0.206889E-01    0.112138E-02    0.160000E-02
    0.163301E-01    0.138785E-02    0.160000E-02
    0.167467E-01    0.138785E-02    0.160000E-02
    0.171675E-01    0.138785E-02    0.160000E-02
    0.175925E-01    0.138785E-02    0.160000E-02
    0.180217E-01    0.138785E-02    0.160000E-02
    0.184553E-01    0.138785E-02    0.160000E-02
    0.188932E-01    0.138785E-02    0.160000E-02
    0.193354E-01    0.138785E-02    0.160000E-02
    0.197821E-01    0.138785E-02    0.160000E-02
    0.202332E-01    0.138785E-02    0.160000E-02
    0.206889E-01    0.138785E-02    0.160000E-02
    0.163301E-01    0.164899E-02    0.160000E-02
    0.167467E-01    0.164899E-02    0.160000E-02
    0.171675E-01    0.164899E-02    0.160000E-02
    0.175925E-01    0.164899E-02    0.160000E-02
    0.180217E-01    0.164899E-02    0.160000E-02
    0.184553E-01    0.164899E-02    0.160000E-02
    0.188932E-01    0.164899E-02    0.160000E-02
    0.193354E-01    0.164899E-02    0.160000E-02
    0.197821E-01    0.164899E-02    0.160000E-02
    0.202332E-01    0.164899E-02    0.160000E-02
    0.206889E-01    0.164899E-02    0.160000E-02
    0.163301E-01    0.190491E-02    0.160000E-02
    0.167467E-01    0.190491E-02    0.160000E-02
    0.171675E-01    0.190491E-02    0.160000E-02
    0.175925E-01    0.190491E-02    0.160000E-02
    0.180217E-01    0.190491E-02    0.160000E-02
    0.184553E-01    0.190491E-02    0.160000E-02
    0.188932E-01    0.190491E-02    0.160000E-02
    0.193354E-01    0.190491E-02    0.160000E-02
    0.197821E-01    0.190491E-02    0.160000E-02
    0.202332E-01    0.190491E-02    0.160000E-02
    0.206889E-01    0.190491E-02    0.160000E-02
    0.163301E-01    0.215571E-02    0.160000E-02
    0.167467E-01    0.215571E-02    0.160000E-02
    0.171675E-01    0.215571E-02    0.160000E-02
    0.175925E-01    0.215571E-02    0.160000E-02
    0.180217E-01    0.215571E-02    0.160000E-02
    0.184553E-01    0.215571E-02    0.160000E-02
    0.188932E-01    0.215571E-02    0.160000E-02
    0.193354E-01    0.215571E-02    0.160000E-02
    0.197821E-01    0.215571E-02    0.160000E-02
    0.202332E-01    0.215571E-02    0.160000E-02
    0.206889E-01    0.215571E-02    0.160000E-02
    0.163301E-01    0.240149E-02    0.160000E-02
    0.167467E-01    0.240149E-02    0.160000E-02
    0.171675E-01    0.240149E-02    0.160000E-02
    0.175925E-01    0.240149E-02    0.160000E-02
    0.180217E-01    0.240149E-02    0.160000E-02
    0.184553E-01    0.240149E-02    0.160000E-02
    0.188932E-01    0.240149E-02    0.160000E-02
    0.193354E-01    0.240149E-02    0.160000E-02
    0.197821E-01    0.240149E-02    0.160000E-02
    0.202332E-01    0.240149E-02    0.160000E-02
    0.206889E-01    0.240149E-02    0.160000E-02
    0.163301E-01    0.264236E-02    0.160000E-02
    0.167467E-01    0.264236E-02    0.160000E-02
    0.171675E-01    0.264236E-02    0.160000E-02
    0.175925E-01    0.264236E-02    0.160000E-02
    0.180217E-01    0.264236E-02    0.160000E-02
    0.184553E-01    0.264236E-02    0.160000E-02
    0.188932E-01    0.264236E-02    0.160000E-02
    0.193354E-01    0.264236E-02    0.160000E-02
    0.197821E-01    0.264236E-02    0.160000E-02
    0.202332E-01    0.264236E-02    0.160000E-02
    0.206889E-01    0.264236E-02    0.160000E-02
</DataArray>
</Points>
<PointData>
<DataArray Name="Velocity" type="Float64" format="ascii" NumberOfComponents="3">
    0.171709E+00    0.000000E+00    0.000000E+00
    0.156598E+00    0.000000E+00    0.000000E+00
    0.141067E+00    0.000000E+00    0.000000E+00
    0.126369E+00    0.000000E+00    0.000000E+00
    0.114642E+00    0.000000E+00    0.000000E+00
    0.107128E+00    0.000000E+00    0.000000E+00
    0.102734E+00    0.000000E+00    0.000000E+00
    0.999053E-01    0.000000E+00    0.000000E+00
    0.977731E-01    0.000000E+00    0.000000E+00
    0.960241E-01    0.000000E+00    0.000000E+00
    0.945587E-01    0.000000E+00    0.000000E+00
    0.171483E+00    0.381353E-02    0.000000E+00
    0.156433E+00    0.358591E-02    0.000000E+00
    0.140960E+00    0.309262E-02    0.000000E+00
    0.126311E+00    0.249282E-02    0.000000E+00
    0.114609E+00    0.194144E-02    0.000000E+00
    0.107101E+00    0.151101E-02    0.000000E+00
    0.102705E+00    0.119180E-02    0.000000E+00
    0.998741E-01    0.950872E-03    0.000000E+00
    0.977430E-01    0.763653E-03    0.000000E+00
    0.959968E-01    0.614964E-03    0.000000E+00
    0.945351E-01    0.495299E-03    0.000000E+00
    0.170818E+00    0.749723E-02    0.000000E+00
    0.155949E+00    0.705417E-02    0.000000E+00
    0.140649E+00    0.609189E-02    0.000000E+00
    0.126140E+00    0.491909E-02    0.000000E+00
    0.114513E+00    0.383706E-02    0.000000E+00
    0.107021E+00    0.298879E-02    0.000000E+00
    0.102618E+00    0.235748E-02    0.000000E+00
    0.997825E-01    0.188001E-02    0.000000E+00
    0.976547E-01    0.150872E-02    0.000000E+00
    0.959170E-01    0.121397E-02    0.000000E+00
    0.944660E-01    0.977001E-03    0.000000E+00
    0.169730E+00    0.110030E-01    0.000000E+00
    0.155154E+00    0.103640E-01    0.000000E+00
    0.140131E+00    0.897079E-02    0.000000E+00
    0.125848E+00    0.726524E-02    0.000000E+00
    0.114343E+00    0.568165E-02    0.000000E+00
    0.106882E+00    0.443132E-02    0.000000E+00
    0.102472E+00    0.349537E-02    0.000000E+00
    0.996317E-01    0.278517E-02    0.000000E+00
    0.975104E-01    0.223240E-02    0.000000E+00
    0.957871E-01    0.179390E-02    0.000000E+00
    0.943540E-01    0.144197E-02    0.000000E+00
    0.168229E+00    0.142916E-01    0.000000E+00
    0.154043E+00    0.134818E-01    0.000000E+00
    0.139389E+00    0.117057E-01    0.000000E+00
    0.125412E+00    0.951783E-02    0.000000E+00
    0.114082E+00    0.746861E-02    0.000000E+00
    0.106673E+00    0.583499E-02    0.000000E+00
    0.102262E+00    0.460251E-02    0.000000E+00
    0.994199E-01    0.366330E-02    0.000000E+00
    0.973105E-01    0.293145E-02    0.000000E+00
    0.956086E-01    0.235153E-02    0.000000E+00
    0.942008E-01    0.188719E-02    0.000000E+00
    0.166324E+00    0.173342E-01    0.000000E+00
    0.152608E+00    0.163818E-01    0.000000E+00
    0.138400E+00    0.142769E-01    0.000000E+00
    0.124800E+00    0.116636E-01    0.000000E+00
    0.113699E+00    0.918972E-02    0.000000E+00
    0.106376E+00    0.719411E-02    0.000000E+00
    0.101977E+00    0.567404E-02    0.000000E+00
    0.991428E-01    0.451004E-02    0.000000E+00
    0.970538E-01    0.360192E-02    0.000000E+00
    0.953819E-01    0.288336E-02    0.000000E+00
    0.940074E-01    0.230960E-02    0.000000E+00
    0.164024E+00    0.201137E-01    0.000000E+00
    0.150833E+00    0.190476E-01    0.000000E+00
    0.137131E+00    0.166693E-01    0.000000E+00
    0.123972E+00    0.136893E-01    0.000000E+00
    0.113163E+00    0.108336E-01    0.000000E+00
    0.105966E+00    0.849938E-02    0.000000E+00
    0.101605E+00    0.670277E-02    0.000000E+00
    0.987939E-01    0.531939E-02    0.000000E+00
    0.967374E-01    0.423889E-02    0.000000E+00
    0.951060E-01    0.338539E-02    0.000000E+00
    0.937741E-01    0.270604E-02    0.000000E+00
    0.161343E+00    0.226269E-01    0.000000E+00
    0.148703E+00    0.214737E-01    0.000000E+00
    0.135545E+00    0.188732E-01    0.000000E+00
    0.122884E+00    0.155821E-01    0.000000E+00
    0.112432E+00    0.123874E-01    0.000000E+00
    0.105415E+00    0.973967E-02    0.000000E+00
    0.101128E+00    0.767902E-02    0.000000E+00
    0.983635E-01    0.608338E-02    0.000000E+00
    0.963566E-01    0.483622E-02    0.000000E+00
    0.947789E-01    0.385305E-02    0.000000E+00
    0.934999E-01    0.307307E-02    0.000000E+00
    0.158292E+00    0.248882E-01    0.000000E+00
    0.146191E+00    0.236683E-01    0.000000E+00
    0.133592E+00    0.208863E-01    0.000000E+00
    0.121477E+00    0.173306E-01    0.000000E+00
    0.111456E+00    0.138356E-01    0.000000E+00
    0.104688E+00    0.108990E-01    0.000000E+00
    0.100524E+00    0.858901E-02    0.000000E+00
    0.978384E-01    0.679162E-02    0.000000E+00
    0.959039E-01    0.538634E-02    0.000000E+00
    0.943964E-01    0.428100E-02    0.000000E+00
    0.931825E-01    0.340695E-02    0.000000E+00
    0.154888E+00    0.269346E-01    0.000000E+00
    0.143258E+00    0.256577E-01    0.000000E+00
    0.131201E+00    0.227151E-01    0.000000E+00
    0.119677E+00    0.189237E-01    0.000000E+00
    0.110173E+00    0.151576E-01    0.000000E+00
    0.103739E+00    0.119556E-01    0.000000E+00
    0.997623E-01    0.941466E-02    0.000000E+00
    0.972011E-01    0.743071E-02    0.000000E+00
    0.953689E-01    0.587999E-02    0.000000E+00
    0.939518E-01    0.466301E-02    0.000000E+00
    0.928175E-01    0.370348E-02    0.000000E+00
    0.151144E+00    0.288359E-01    0.000000E+00
    0.139837E+00    0.274941E-01    0.000000E+00
    0.128257E+00    0.243787E-01    0.000000E+00
    0.117367E+00    0.203496E-01    0.000000E+00
    0.108493E+00    0.163250E-01    0.000000E+00
    0.102507E+00    0.128797E-01    0.000000E+00
    0.988068E-01    0.101318E-01    0.000000E+00
    0.964285E-01    0.798345E-02    0.000000E+00
    0.947368E-01    0.630592E-02    0.000000E+00
    0.934356E-01    0.499177E-02    0.000000E+00
    0.923981E-01    0.395786E-02    0.000000E+00
    0.171709E+00    0.000000E+00    0.000000E+00
    0.156598E+00    0.000000E+00    0.000000E+00
    0.141067E+00    0.000000E+00    0.000000E+00
    0.126369E+00    0.000000E+00    0.000000E+00
    0.114642E+00    0.000000E+00    0.000000E+00
    0.107128E+00    0.000000E+00    0.000000E+00
    0.102734E+00    0.000000E+00    0.000000E+00
    0.999053E-01    0.000000E+00    0.000000E+00
    0.977731E-01    0.000000E+00    0.000000E+00
    0.960241E-01    0.000000E+00    0.000000E+00
    0.945587E-01    0.000000E+00    0.000000E+00
    0.171483E+00    0.382382E-02   -0.936565E-18
    0.156433E+00    0.358591E-02   -0.878296E-18
    0.140960E+00    0.309262E-02   -0.757474E-18
    0.126311E+00    0.249282E-02   -0.610565E-18
    0.114609E+00    0.194144E-02   -0.475516E-18
    0.107101E+00    0.151101E-02   -0.370092E-18
    0.102705E+00    0.119180E-02   -0.291908E-18
    0.998741E-01    0.950872E-03   -0.232896E-18
    0.977430E-01    0.763653E-03   -0.187041E-18
    0.959968E-01    0.614964E-03   -0.150623E-18
    0.945351E-01    0.495299E-03   -0.121313E-18
    0.170818E+00    0.751709E-02   -0.184116E-17
    0.155949E+00    0.705417E-02   -0.172777E-17
    0.140649E+00    0.609189E-02   -0.149208E-17
    0.126140E+00    0.491909E-02   -0.120483E-17
    0.114513E+00    0.383706E-02   -0.939808E-18
    0.107021E+00    0.298879E-02   -0.732042E-18
    0.102618E+00    0.235748E-02   -0.577416E-18
    0.997825E-01    0.188001E-02   -0.460469E-18
    0.976547E-01    0.150872E-02   -0.369531E-18
    0.959170E-01    0.121397E-02   -0.297337E-18
    0.944660E-01    0.977001E-03   -0.239296E-18
    0.169730E+00    0.110312E-01   -0.270187E-17
    0.155154E+00    0.103640E-01   -0.253846E-17
    0.140131E+00    0.897079E-02   -0.219721E-17
    0.125848E+00    0.726524E-02   -0.177947E-17
    0.114343E+00    0.568165E-02   -0.139160E-17
    0.106882E+00    0.443132E-02   -0.108536E-17
    0.102472E+00    0.349537E-02   -0.856118E-18
    0.996317E-01    0.278517E-02   -0.682171E-18
    0.975104E-01    0.223240E-02   -0.546781E-18
    0.957871E-01    0.179390E-02   -0.439379E-18
    0.943540E-01    0.144197E-02   -0.353181E-18
    0.168229E+00    0.143268E-01   -0.350905E-17
    0.154043E+00    0.134818E-01   -0.330209E-17
    0.139389E+00    0.117057E-01   -0.286707E-17
    0.125412E+00    0.951783E-02   -0.233120E-17
    0.114082E+00    0.746861E-02   -0.182928E-17
    0.106673E+00    0.583499E-02   -0.142916E-17
    0.102262E+00    0.460251E-02   -0.112729E-17
    0.994199E-01    0.366330E-02   -0.897249E-18
    0.973105E-01    0.293145E-02   -0.717999E-18
    0.956086E-01    0.235153E-02   -0.575960E-18
    0.942008E-01    0.188719E-02   -0.462228E-18
    0.166324E+00    0.173746E-01   -0.425555E-17
    0.152608E+00    0.163818E-01   -0.401239E-17
    0.138400E+00    0.142769E-01   -0.349684E-17
    0.124800E+00    0.116636E-01   -0.285675E-17
    0.113699E+00    0.918972E-02   -0.225083E-17
    0.106376E+00    0.719411E-02   -0.176205E-17
    0.101977E+00    0.567404E-02   -0.138974E-17
    0.991428E-01    0.451004E-02   -0.110464E-17
    0.970538E-01    0.360192E-02   -0.882217E-18
    0.953819E-01    0.288336E-02   -0.706219E-18
    0.940074E-01    0.230960E-02   -0.565690E-18
    0.164024E+00    0.201575E-01   -0.493716E-17
    0.150833E+00    0.190476E-01   -0.466531E-17
    0.137131E+00    0.166693E-01   -0.408280E-17
    0.123972E+00    0.136893E-01   -0.335290E-17
    0.113163E+00    0.108336E-01   -0.265347E-17
    0.105966E+00    0.849938E-02   -0.208175E-17
    0.101605E+00    0.670277E-02   -0.164170E-17
    0.987939E-01    0.531939E-02   -0.130288E-17
    0.967374E-01    0.423889E-02   -0.103823E-17
    0.951060E-01    0.338539E-02   -0.829182E-18
    0.937741E-01    0.270604E-02   -0.662788E-18
    0.161343E+00    0.226725E-01   -0.555317E-17
    0.148703E+00    0.214737E-01   -0.525953E-17
    0.135545E+00    0.188732E-01   -0.462261E-17
    0.122884E+00    0.155821E-01   -0.381651E-17
    0.112432E+00    0.123874E-01   -0.303404E-17
    0.105415E+00    0.973967E-02   -0.238553E-17
    0.101128E+00    0.767902E-02   -0.188082E-17
    0.983635E-01    0.608338E-02   -0.149000E-17
    0.963566E-01    0.483622E-02   -0.118453E-17
    0.947789E-01    0.385305E-02   -0.943726E-18
    0.934999E-01    0.307307E-02   -0.752685E-18
    0.158292E+00    0.249344E-01   -0.610716E-17
    0.146191E+00    0.236683E-01   -0.579706E-17
    0.133592E+00    0.208863E-01   -0.511568E-17
    0.121477E+00    0.173306E-01   -0.424478E-17
    0.111456E+00    0.138356E-01   -0.338876E-17
    0.104688E+00    0.108990E-01   -0.266950E-17
    0.100524E+00    0.858901E-02   -0.210370E-17
    0.978384E-01    0.679162E-02   -0.166347E-17
    0.959039E-01    0.538634E-02   -0.131927E-17
    0.943964E-01    0.428100E-02   -0.104854E-17
    0.931825E-01    0.340695E-02   -0.834463E-18
    0.154888E+00    0.269808E-01   -0.660838E-17
    0.143258E+00    0.256577E-01   -0.628433E-17
    0.131201E+00    0.227151E-01   -0.556360E-17
    0.119677E+00    0.189237E-01   -0.463498E-17
    0.110173E+00    0.151576E-01   -0.371253E-17
    0.103739E+00    0.119556E-01   -0.292829E-17
    0.997623E-01    0.941466E-02   -0.230593E-17
    0.972011E-01    0.743071E-02   -0.182000E-17
    0.953689E-01    0.587999E-02   -0.144018E-17
    0.939518E-01    0.466301E-02   -0.114211E-17
    0.928175E-01    0.370348E-02   -0.907092E-18
    0.151144E+00    0.288823E-01   -0.707412E-17
    0.139837E+00    0.274941E-01   -0.673411E-17
    0.128257E+00    0.243787E-01   -0.597106E-17
    0.117367E+00    0.203496E-01   -0.498422E-17
    0.108493E+00    0.163250E-01   -0.399848E-17
    0.102507E+00    0.128797E-01   -0.315462E-17
    0.988068E-01    0.101318E-01   -0.248158E-17
    0.964285E-01    0.798345E-02   -0.195538E-17
    0.947368E-01    0.630592E-02   -0.154451E-17
    0.934356E-01    0.499177E-02   -0.122263E-17
    0.923981E-01    0.395786E-02   -0.969395E-18
</DataArray>
</PointData>
<CellData>
<DataArray Name="DP" type="Float64" format="ascii" NumberOfComponents="1">
      0.000000E+0000
      0.000000E+0000
      0.000000E+0000
      0.000000E+0000
      0.000000E+0000
      0.000000E+0000
      0.000000E+0000
      0.000000E+0000
      0.000000E+0000
      0.000000E+0000
      0.000000E+0000
      0.000000E+0000
      0.000000E+0000
      0.000000E+0000
      0.000000E+0000
      0.000000E+0000
      0.000000E+0000
      0.000000E+0000
      0.000000E+0000
      0.000000E+0000
      0.000000E+0000
      0.000000E+0000
      0.000000E+0000
      0.000000E+0000
      0.000000E+0000
      0.000000E+0000
      0.000000E+0000
      0.000000E+0000
      0.000000E+0000
      0.000000E+0000
      0.000000E+0000
      0.000000E+0000
      0.000000E+0000
      0.000000E+0000
      0.000000E+0000
      0.000000E+0000
      0.000000E+0000
      0.000000E+0000
      0.000000E+0000
      0.000000E+0000
      0.000000E+0000
      0.000000E+0000
      0.000000E+0000
      0.000000E+0000
      0.000000E+0000
      0.000000E+0000
      0.000000E+0000
      0.000000E+0000
      0.000000E+0000
      0.000000E+0000
      0.000000E+0000
      0.000000E+0000
      0.000000E+0000
      0.000000E+0000
      0.000000E+0000
      0.000000E+0000
      0.000000E+0000
      0.000000E+0000
      0.000000E+0000
      0.000000E+0000
      0.000000E+0000
      0.000000E+0000
      0.000000E+0000
      0.000000E+0000
      0.000000E+0000
      0.000000E+0000
      0.000000E+0000
      0.000000E+0000
      0.000000E+0000
      0.000000E+0000
      0.000000E+0000
      0.000000E+0000
      0.000000E+0000
      0.000000E+0000
      0.000000E+0000
      0.000000E+0000
      0.000000E+0000
      0.000000E+0000
      0.000000E+0000
      0.000000E+0000
      0.000000E+0000
      0.000000E+0000
      0.000000E+0000
      0.000000E+0000
      0.000000E+0000
      0.000000E+0000
      0.000000E+0000
      0.000000E+0000
      0.000000E+0000
      0.000000E+0000
      0.000000E+0000
      0.000000E+0000
      0.000000E+0000
      0.000000E+0000
      0.000000E+0000
      0.000000E+0000
      0.000000E+0000
      0.000000E+0000
      0.000000E+0000
      0.000000E+0000
</DataArray>
<DataArray Name="P" type="Float64" format="ascii" NumberOfComponents="1">
      0.447709E+0000
      0.443195E+0000
      0.438336E+0000
      0.433149E+0000
      0.427839E+0000
      0.422423E+0000
      0.416922E+0000
      0.411383E+0000
      0.405840E+0000
      0.400300E+0000
      0.447665E+0000
      0.443156E+0000
      0.438304E+0000
      0.433122E+0000
      0.427816E+0000
      0.422404E+0000
      0.416907E+0000
      0.411371E+0000
      0.405830E+0000
      0.400291E+0000
      0.447593E+0000
      0.443091E+0000
      0.438247E+0000
      0.433075E+0000
      0.427777E+0000
      0.422371E+0000
      0.416880E+0000
      0.411348E+0000
      0.405811E+0000
      0.400275E+0000
      0.447493E+0000
      0.442999E+0000
      0.438168E+0000
      0.433008E+0000
      0.427720E+0000
      0.422323E+0000
      0.416840E+0000
      0.411316E+0000
      0.405784E+0000
      0.400252E+0000
      0.447368E+0000
      0.442885E+0000
      0.438068E+0000
      0.432923E+0000
      0.427649E+0000
      0.422262E+0000
      0.416789E+0000
      0.411273E+0000
      0.405749E+0000
      0.400223E+0000
      0.447225E+0000
      0.442752E+0000
      0.437950E+0000
      0.432823E+0000
      0.427563E+0000
      0.422189E+0000
      0.416727E+0000
      0.411222E+0000
      0.405706E+0000
      0.400187E+0000
      0.447067E+0000
      0.442604E+0000
      0.437818E+0000
      0.432709E+0000
      0.427466E+0000
      0.422105E+0000
      0.416656E+0000
      0.411163E+0000
      0.405657E+0000
      0.400146E+0000
      0.446900E+0000
      0.442445E+0000
      0.437673E+0000
      0.432583E+0000
      0.427357E+0000
      0.422011E+0000
      0.416577E+0000
      0.411097E+0000
      0.405602E+0000
      0.400100E+0000
      0.446727E+0000
      0.442277E+0000
      0.437519E+0000
      0.432448E+0000
      0.427239E+0000
      0.421909E+0000
      0.416490E+0000
      0.411025E+0000
      0.405543E+0000
      0.400051E+0000
      0.446552E+0000
      0.442105E+0000
      0.437357E+0000
      0.432305E+0000
      0.427113E+0000
      0.421799E+0000
      0.416397E+0000
      0.410948E+0000
      0.405478E+0000
      0.399998E+0000
</DataArray>
<DataArray Name="RHO" type="Float64" format="ascii" NumberOfComponents="1">
      0.971538E+0000
      0.100756E+0001
      0.106717E+0001
      0.114810E+0001
      0.120082E+0001
      0.121321E+0001
      0.120680E+0001
      0.119732E+0001
      0.118966E+0001
      0.118426E+0001
      0.972228E+0000
      0.100814E+0001
      0.106733E+0001
      0.114771E+0001
      0.120028E+0001
      0.121286E+0001
      0.120663E+0001
      0.119725E+0001
      0.118963E+0001
      0.118425E+0001
      0.973592E+0000
      0.100928E+0001
      0.106769E+0001
      0.114700E+0001
      0.119925E+0001
      0.121218E+0001
      0.120630E+0001
      0.119711E+0001
      0.118958E+0001
      0.118423E+0001
      0.975611E+0000
      0.101099E+0001
      0.106831E+0001
      0.114610E+0001
      0.119784E+0001
      0.121119E+0001
      0.120581E+0001
      0.119689E+0001
      0.118949E+0001
      0.118420E+0001
      0.978279E+0000
      0.101327E+0001
      0.106929E+0001
      0.114515E+0001
      0.119613E+0001
      0.120994E+0001
      0.120515E+0001
      0.119659E+0001
      0.118936E+0001
      0.118414E+0001
      0.981594E+0000
      0.101613E+0001
      0.107073E+0001
      0.114432E+0001
      0.119423E+0001
      0.120846E+0001
      0.120433E+0001
      0.119620E+0001
      0.118918E+0001
      0.118405E+0001
      0.985556E+0000
      0.101960E+0001