<?xml version="1.0"?>
<VTKFile type="StructuredGrid" version="0.1" byte_order="LittleEndian">
<StructuredGrid WholeExtent="          60          70          80          90           0           1">
<Piece Extent="          60          70          80          90           0           1">
<Points>
<DataArray NumberOfComponents="3" type="Float64" format="ascii">
    0.206889E-01    0.305691E-01    0.000000E+00
    0.211491E-01    0.305691E-01    0.000000E+00
    0.216139E-01    0.305691E-01    0.000000E+00
    0.220834E-01    0.305691E-01    0.000000E+00
    0.225576E-01    0.305691E-01    0.000000E+00
    0.230365E-01    0.305691E-01    0.000000E+00
    0.235201E-01    0.305691E-01    0.000000E+00
    0.240087E-01    0.305691E-01    0.000000E+00
    0.245021E-01    0.305691E-01    0.000000E+00
    0.250004E-01    0.305691E-01    0.000000E+00
    0.255037E-01    0.305691E-01    0.000000E+00
    0.206889E-01    0.314969E-01    0.000000E+00
    0.211491E-01    0.314969E-01    0.000000E+00
    0.216139E-01    0.314969E-01    0.000000E+00
    0.220834E-01    0.314969E-01    0.000000E+00
    0.225576E-01    0.314969E-01    0.000000E+00
    0.230365E-01    0.314969E-01    0.000000E+00
    0.235201E-01    0.314969E-01    0.000000E+00
    0.240087E-01    0.314969E-01    0.000000E+00
    0.245021E-01    0.314969E-01    0.000000E+00
    0.250004E-01    0.314969E-01    0.000000E+00
    0.255037E-01    0.314969E-01    0.000000E+00
    0.206889E-01    0.324526E-01    0.000000E+00
    0.211491E-01    0.324526E-01    0.000000E+00
    0.216139E-01    0.324526E-01    0.000000E+00
    0.220834E-01    0.324526E-01    0.000000E+00
    0.225576E-01    0.324526E-01    0.000000E+00
    0.230365E-01    0.324526E-01    0.000000E+00
    0.235201E-01    0.324526E-01    0.000000E+00
    0.240087E-01    0.324526E-01    0.000000E+00
    0.245021E-01    0.324526E-01    0.000000E+00
    0.250004E-01    0.324526E-01    0.000000E+00
    0.255037E-01    0.324526E-01    0.000000E+00
    0.206889E-01    0.334369E-01    0.000000E+00
    0.211491E-01    0.334369E-01    0.000000E+00
    0.216139E-01    0.334369E-01    0.000000E+00
    0.220834E-01    0.334369E-01    0.000000E+00
    0.225576E-01    0.334369E-01    0.000000E+00
    0.230365E-01    0.334369E-01    0.000000E+00
    0.235201E-01    0.334369E-01    0.000000E+00
    0.240087E-01    0.334369E-01    0.000000E+00
    0.245021E-01    0.334369E-01    0.000000E+00
    0.250004E-01    0.334369E-01    0.000000E+00
    0.255037E-01    0.334369E-01    0.000000E+00
    0.206889E-01    0.344508E-01    0.000000E+00
    0.211491E-01    0.344508E-01    0.000000E+00
    0.216139E-01    0.344508E-01    0.000000E+00
    0.220834E-01    0.344508E-01    0.000000E+00
    0.225576E-01    0.344508E-01    0.000000E+00
    0.230365E-01    0.344508E-01    0.000000E+00
    0.235201E-01    0.344508E-01    0.000000E+00
    0.240087E-01    0.344508E-01    0.000000E+00
    0.245021E-01    0.344508E-01    0.000000E+00
    0.250004E-01    0.344508E-01    0.000000E+00
    0.255037E-01    0.344508E-01    0.000000E+00
    0.206889E-01    0.354950E-01    0.000000E+00
    0.211491E-01    0.354950E-01    0.000000E+00
    0.216139E-01    0.354950E-01    0.000000E+00
    0.220834E-01    0.354950E-01    0.000000E+00
    0.225576E-01    0.354950E-01    0.000000E+00
    0.230365E-01    0.354950E-01    0.000000E+00
    0.235201E-01    0.354950E-01    0.000000E+00
    0.240087E-01    0.354950E-01    0.000000E+00
    0.245021E-01    0.354950E-01    0.000000E+00
    0.250004E-01    0.354950E-01    0.000000E+00
    0.255037E-01    0.354950E-01    0.000000E+00
    0.206889E-01    0.365706E-01    0.000000E+00
    0.211491E-01    0.365706E-01    0.000000E+00
    0.216139E-01    0.365706E-01    0.000000E+00
    0.220834E-01    0.365706E-01    0.000000E+00
    0.225576E-01    0.365706E-01    0.000000E+00
    0.230365E-01    0.365706E-01    0.000000E+00
    0.235201E-01    0.365706E-01    0.000000E+00
    0.240087E-01    0.365706E-01    0.000000E+00
    0.245021E-01    0.365706E-01    0.000000E+00
    0.250004E-01    0.365706E-01    0.000000E+00
    0.255037E-01    0.365706E-01    0.000000E+00
    0.206889E-01    0.376785E-01    0.000000E+00
    0.211491E-01    0.376785E-01    0.000000E+00
    0.216139E-01    0.376785E-01    0.000000E+00
    0.220834E-01    0.376785E-01    0.000000E+00
    0.225576E-01    0.376785E-01    0.000000E+00
    0.230365E-01    0.376785E-01    0.000000E+00
    0.235201E-01    0.376785E-01    0.000000E+00
    0.240087E-01    0.376785E-01    0.000000E+00
    0.245021E-01    0.376785E-01    0.000000E+00
    0.250004E-01    0.376785E-01    0.000000E+00
    0.255037E-01    0.376785E-01    0.000000E+00
    0.206889E-01    0.388196E-01    0.000000E+00
    0.211491E-01    0.388196E-01    0.000000E+00
    0.216139E-01    0.388196E-01    0.000000E+00
    0.220834E-01    0.388196E-01    0.000000E+00
    0.225576E-01    0.388196E-01    0.000000E+00
    0.230365E-01    0.388196E-01    0.000000E+00
    0.235201E-01    0.388196E-01    0.000000E+00
    0.240087E-01    0.388196E-01    0.000000E+00
    0.245021E-01    0.388196E-01    0.000000E+00
    0.250004E-01    0.388196E-01    0.000000E+00
    0.255037E-01    0.388196E-01    0.000000E+00
    0.206889E-01    0.399949E-01    0.000000E+00
    0.211491E-01    0.399949E-01    0.000000E+00
    0.216139E-01    0.399949E-01    0.000000E+00
    0.220834E-01    0.399949E-01    0.000000E+00
    0.225576E-01    0.399949E-01    0.000000E+00
    0.230365E-01    0.399949E-01    0.000000E+00
    0.235201E-01    0.399949E-01    0.000000E+00
    0.240087E-01    0.399949E-01    0.000000E+00
    0.245021E-01    0.399949E-01    0.000000E+00
    0.250004E-01    0.399949E-01    0.000000E+00
    0.255037E-01    0.399949E-01    0.000000E+00
    0.206889E-01    0.412055E-01    0.000000E+00
    0.211491E-01    0.412055E-01    0.000000E+00
    0.216139E-01    0.412055E-01    0.000000E+00
    0.220834E-01    0.412055E-01    0.000000E+00
    0.225576E-01    0.412055E-01    0.000000E+00
    0.230365E-01    0.412055E-01    0.000000E+00
    0.235201E-01    0.412055E-01    0.000000E+00
    0.240087E-01    0.412055E-01    0.000000E+00
    0.245021E-01    0.412055E-01    0.000000E+00
    0.250004E-01    0.412055E-01    0.000000E+00
    0.255037E-01    0.412055E-01    0.000000E+00
    0.206889E-01    0.305691E-01    0.160000E-02
    0.211491E-01    0.305691E-01    0.160000E-02
    0.216139E-01    0.305691E-01    0.160000E-02
    0.220834E-01    0.305691E-01    0.160000E-02
    0.225576E-01    0.305691E-01    0.160000E-02
    0.230365E-01    0.305691E-01    0.160000E-02
    0.235201E-01    0.305691E-01    0.160000E-02
    0.240087E-01    0.305691E-01    0.160000E-02
    0.245021E-01    0.305691E-01    0.160000E-02
    0.250004E-01    0.305691E-01    0.160000E-02
    0.255037E-01    0.305691E-01    0.160000E-02
    0.206889E-01    0.314969E-01    0.160000E-02
    0.211491E-01    0.314969E-01    0.160000E-02
    0.216139E-01    0.314969E-01    0.160000E-02
    0.220834E-01    0.314969E-01    0.160000E-02
    0.225576E-01    0.314969E-01    0.160000E-02
    0.230365E-01    0.314969E-01    0.160000E-02
    0.235201E-01    0.314969E-01    0.160000E-02
    0.240087E-01    0.314969E-01    0.160000E-02
    0.245021E-01    0.314969E-01    0.160000E-02
    0.250004E-01    0.314969E-01    0.160000E-02
    0.255037E-01    0.314969E-01    0.160000E-02
    0.206889E-01    0.324526E-01    0.160000E-02
    0.211491E-01    0.324526E-01    0.160000E-02
    0.216139E-01    0.324526E-01    0.160000E-02
    0.220834E-01    0.324526E-01    0.160000E-02
    0.225576E-01    0.324526E-01    0.160000E-02
    0.230365E-01    0.324526E-01    0.160000E-02
    0.235201E-01    0.324526E-01    0.160000E-02
    0.240087E-01    0.324526E-01    0.160000E-02
    0.245021E-01    0.324526E-01    0.160000E-02
    0.250004E-01    0.324526E-01    0.160000E-02
    0.255037E-01    0.324526E-01    0.160000E-02
    0.206889E-01    0.334369E-01    0.160000E-02
    0.211491E-01    0.334369E-01    0.160000E-02
    0.216139E-01    0.334369E-01    0.160000E-02
    0.220834E-01    0.334369E-01    0.160000E-02
    0.225576E-01    0.334369E-01    0.160000E-02
    0.230365E-01    0.334369E-01    0.160000E-02
    0.235201E-01    0.334369E-01    0.160000E-02
    0.240087E-01    0.334369E-01    0.160000E-02
    0.245021E-01    0.334369E-01    0.160000E-02
    0.250004E-01    0.334369E-01    0.160000E-02
    0.255037E-01    0.334369E-01    0.160000E-02
    0.206889E-01    0.344508E-01    0.160000E-02
    0.211491E-01    0.344508E-01    0.160000E-02
    0.216139E-01    0.344508E-01    0.160000E-02
    0.220834E-01    0.344508E-01    0.160000E-02
    0.225576E-01    0.344508E-01    0.160000E-02
    0.230365E-01    0.344508E-01    0.160000E-02
    0.235201E-01    0.344508E-01    0.160000E-02
    0.240087E-01    0.344508E-01    0.160000E-02
    0.245021E-01    0.344508E-01    0.160000E-02
    0.250004E-01    0.344508E-01    0.160000E-02
    0.255037E-01    0.344508E-01    0.160000E-02
    0.206889E-01    0.354950E-01    0.160000E-02
    0.211491E-01    0.354950E-01    0.160000E-02
    0.216139E-01    0.354950E-01    0.160000E-02
    0.220834E-01    0.354950E-01    0.160000E-02
    0.225576E-01    0.354950E-01    0.160000E-02
    0.230365E-01    0.354950E-01    0.160000E-02
    0.235201E-01    0.354950E-01    0.160000E-02
    0.240087E-01    0.354950E-01    0.160000E-02
    0.245021E-01    0.354950E-01    0.160000E-02
    0.250004E-01    0.354950E-01    0.160000E-02
    0.255037E-01    0.354950E-01    0.160000E-02
    0.206889E-01    0.365706E-01    0.160000E-02
    0.211491E-01    0.365706E-01    0.160000E-02
    0.216139E-01    0.365706E-01    0.160000E-02
    0.220834E-01    0.365706E-01    0.160000E-02
    0.225576E-01    0.365706E-01    0.160000E-02
    0.230365E-01    0.365706E-01    0.160000E-02
    0.235201E-01    0.365706E-01    0.160000E-02
    0.240087E-01    0.365706E-01    0.160000E-02
    0.245021E-01    0.365706E-01    0.160000E-02
    0.250004E-01    0.365706E-01    0.160000E-02
    0.255037E-01    0.365706E-01    0.160000E-02
    0.206889E-01    0.376785E-01    0.160000E-02
    0.211491E-01    0.376785E-01    0.160000E-02
    0.216139E-01    0.376785E-01    0.160000E-02
    0.220834E-01    0.376785E-01    0.160000E-02
    0.225576E-01    0.376785E-01    0.160000E-02
    0.230365E-01    0.376785E-01    0.160000E-02
    0.235201E-01    0.376785E-01    0.160000E-02
    0.240087E-01    0.376785E-01    0.160000E-02
    0.245021E-01    0.376785E-01    0.160000E-02
    0.250004E-01    0.376785E-01    0.160000E-02
    0.255037E-01    0.376785E-01    0.160000E-02
    0.206889E-01    0.388196E-01    0.160000E-02
    0.211491E-01    0.388196E-01    0.160000E-02
    0.216139E-01    0.388196E-01    0.160000E-02
    0.220834E-01    0.388196E-01    0.160000E-02
    0.225576E-01    0.388196E-01    0.160000E-02
    0.230365E-01    0.388196E-01    0.160000E-02
    0.235201E-01    0.388196E-01    0.160000E-02
    0.240087E-01    0.388196E-01    0.160000E-02
    0.245021E-01    0.388196E-01    0.160000E-02
    0.250004E-01    0.388196E-01    0.160000E-02
    0.255037E-01    0.388196E-01    0.160000E-02
    0.206889E-01    0.399949E-01    0.160000E-02
    0.211491E-01    0.399949E-01    0.160000E-02
    0.216139E-01    0.399949E-01    0.160000E-02
    0.220834E-01    0.399949E-01    0.160000E-02
    0.225576E-01    0.399949E-01    0.160000E-02
    0.230365E-01    0.399949E-01    0.160000E-02
    0.235201E-01    0.399949E-01    0.160000E-02
    0.240087E-01    0.399949E-01    0.160000E-02
    0.245021E-01    0.399949E-01    0.160000E-02
    0.250004E-01    0.399949E-01    0.160000E-02
    0.255037E-01    0.399949E-01    0.160000E-02
    0.206889E-01    0.412055E-01    0.160000E-02
    0.211491E-01    0.412055E-01    0.160000E-02
    0.216139E-01    0.412055E-01    0.160000E-02
    0.220834E-01    0.412055E-01    0.160000E-02
    0.225576E-01    0.412055E-01    0.160000E-02
    0.230365E-01    0.412055E-01    0.160000E-02
    0.235201E-01    0.412055E-01    0.160000E-02
    0.240087E-01    0.412055E-01    0.160000E-02
    0.245021E-01    0.412055E-01    0.160000E-02
    0.250004E-01    0.412055E-01    0.160000E-02
    0.255037E-01    0.412055E-01    0.160000E-02
</DataArray>
</Points>
<PointData>
<DataArray Name="Velocity" type="Float64" format="ascii" NumberOfComponents="3">
    0.884925E-01   -0.519484E-03    0.000000E+00
    0.884860E-01   -0.508597E-03    0.000000E+00
    0.884797E-01   -0.496148E-03    0.000000E+00
    0.884738E-01   -0.483714E-03    0.000000E+00
    0.884681E-01   -0.471312E-03    0.000000E+00
    0.884628E-01   -0.458955E-03    0.000000E+00
    0.884577E-01   -0.446659E-03    0.000000E+00
    0.884529E-01   -0.434437E-03    0.000000E+00
    0.884484E-01   -0.422302E-03    0.000000E+00
    0.884441E-01   -0.410266E-03    0.000000E+00
    0.884401E-01   -0.398342E-03    0.000000E+00
    0.885124E-01   -0.490707E-03    0.000000E+00
    0.885057E-01   -0.480749E-03    0.000000E+00
    0.884993E-01   -0.469346E-03    0.000000E+00
    0.884931E-01   -0.457943E-03    0.000000E+00
    0.884872E-01   -0.446551E-03    0.000000E+00
    0.884816E-01   -0.435185E-03    0.000000E+00
    0.884762E-01   -0.423859E-03    0.000000E+00
    0.884711E-01   -0.412584E-03    0.000000E+00
    0.884663E-01   -0.401374E-03    0.000000E+00
    0.884617E-01   -0.390240E-03    0.000000E+00
    0.884574E-01   -0.379193E-03    0.000000E+00
    0.885294E-01   -0.462149E-03    0.000000E+00
    0.885226E-01   -0.453082E-03    0.000000E+00
    0.885160E-01   -0.442685E-03    0.000000E+00
    0.885097E-01   -0.432271E-03    0.000000E+00
    0.885036E-01   -0.421853E-03    0.000000E+00
    0.884978E-01   -0.411443E-03    0.000000E+00
    0.884922E-01   -0.401054E-03    0.000000E+00
    0.884869E-01   -0.390697E-03    0.000000E+00
    0.884818E-01   -0.380384E-03    0.000000E+00
    0.884770E-01   -0.370126E-03    0.000000E+00
    0.884724E-01   -0.359933E-03    0.000000E+00
    0.885488E-01   -0.433774E-03    0.000000E+00
    0.885419E-01   -0.425549E-03    0.000000E+00
    0.885352E-01   -0.416104E-03    0.000000E+00
    0.885287E-01   -0.406630E-03    0.000000E+00
    0.885225E-01   -0.397139E-03    0.000000E+00
    0.885165E-01   -0.387641E-03    0.000000E+00
    0.885107E-01   -0.378148E-03    0.000000E+00
    0.885051E-01   -0.368671E-03    0.000000E+00
    0.884998E-01   -0.359220E-03    0.000000E+00
    0.884947E-01   -0.349805E-03    0.000000E+00
    0.884898E-01   -0.340437E-03    0.000000E+00
    0.885682E-01   -0.405601E-03    0.000000E+00
    0.885612E-01   -0.398166E-03    0.000000E+00
    0.885544E-01   -0.389617E-03    0.000000E+00
    0.885478E-01   -0.381030E-03    0.000000E+00
    0.885414E-01   -0.372414E-03    0.000000E+00
    0.885352E-01   -0.363781E-03    0.000000E+00
    0.885292E-01   -0.355140E-03    0.000000E+00
    0.885234E-01   -0.346500E-03    0.000000E+00
    0.885179E-01   -0.337872E-03    0.000000E+00
    0.885125E-01   -0.329266E-03    0.000000E+00
    0.885074E-01   -0.320690E-03    0.000000E+00
    0.885865E-01   -0.377666E-03    0.000000E+00
    0.885794E-01   -0.370970E-03    0.000000E+00
    0.885725E-01   -0.363261E-03    0.000000E+00
    0.885658E-01   -0.355507E-03    0.000000E+00
    0.885593E-01   -0.347716E-03    0.000000E+00
    0.885530E-01   -0.339899E-03    0.000000E+00
    0.885468E-01   -0.332064E-03    0.000000E+00
    0.885409E-01   -0.324220E-03    0.000000E+00
    0.885351E-01   -0.316376E-03    0.000000E+00
    0.885296E-01   -0.308541E-03    0.000000E+00
    0.885242E-01   -0.300722E-03    0.000000E+00
    0.886034E-01   -0.350004E-03    0.000000E+00
    0.885963E-01   -0.343996E-03    0.000000E+00
    0.885894E-01   -0.337073E-03    0.000000E+00
    0.885826E-01   -0.330100E-03    0.000000E+00
    0.885760E-01   -0.323086E-03    0.000000E+00
    0.885696E-01   -0.316038E-03    0.000000E+00
    0.885633E-01   -0.308964E-03    0.000000E+00
    0.885573E-01   -0.301874E-03    0.000000E+00
    0.885513E-01   -0.294774E-03    0.000000E+00
    0.885456E-01   -0.287672E-03    0.000000E+00
    0.885400E-01   -0.280577E-03    0.000000E+00
    0.886191E-01   -0.322641E-03    0.000000E+00
    0.886120E-01   -0.317276E-03    0.000000E+00
    0.886050E-01   -0.311086E-03    0.000000E+00
    0.885982E-01   -0.304845E-03    0.000000E+00
    0.885915E-01   -0.298558E-03    0.000000E+00
    0.885850E-01   -0.292234E-03    0.000000E+00
    0.885787E-01   -0.285879E-03    0.000000E+00
    0.885725E-01   -0.279500E-03    0.000000E+00
    0.885664E-01   -0.273105E-03    0.000000E+00
    0.885605E-01   -0.266701E-03    0.000000E+00
    0.885548E-01   -0.260295E-03    0.000000E+00
    0.886335E-01   -0.295599E-03    0.000000E+00
    0.886264E-01   -0.290832E-03    0.000000E+00
    0.886194E-01   -0.285327E-03    0.000000E+00
    0.886126E-01   -0.279769E-03    0.000000E+00
    0.886059E-01   -0.274164E-03    0.000000E+00
    0.885993E-01   -0.268519E-03    0.000000E+00
    0.885929E-01   -0.262841E-03    0.000000E+00
    0.885866E-01   -0.257134E-03    0.000000E+00
    0.885805E-01   -0.251407E-03    0.000000E+00
    0.885745E-01   -0.245664E-03    0.000000E+00
    0.885686E-01   -0.239912E-03    0.000000E+00
    0.886470E-01   -0.268892E-03    0.000000E+00
    0.886399E-01   -0.264682E-03    0.000000E+00
    0.886330E-01   -0.259814E-03    0.000000E+00
    0.886261E-01   -0.254894E-03    0.000000E+00
    0.886194E-01   -0.249928E-03    0.000000E+00
    0.886128E-01   -0.244921E-03    0.000000E+00
    0.886063E-01   -0.239878E-03    0.000000E+00
    0.885999E-01   -0.234805E-03    0.000000E+00
    0.885937E-01   -0.229708E-03    0.000000E+00
    0.885876E-01   -0.224591E-03    0.000000E+00
    0.885816E-01   -0.219461E-03    0.000000E+00
    0.886606E-01   -0.242534E-03    0.000000E+00
    0.886536E-01   -0.238839E-03    0.000000E+00
    0.886467E-01   -0.234563E-03    0.000000E+00
    0.886398E-01   -0.230238E-03    0.000000E+00
    0.886331E-01   -0.225868E-03    0.000000E+00
    0.886265E-01   -0.221457E-03    0.000000E+00
    0.886200E-01   -0.217011E-03    0.000000E+00
    0.886135E-01   -0.212533E-03    0.000000E+00
    0.886072E-01   -0.208030E-03    0.000000E+00
    0.886011E-01   -0.203505E-03    0.000000E+00
    0.885950E-01   -0.198963E-03    0.000000E+00
    0.884883E-01   -0.521048E-03    0.127620E-18
    0.884818E-01   -0.508597E-03    0.124570E-18
    0.884756E-01   -0.496148E-03    0.121521E-18
    0.884698E-01   -0.483714E-03    0.118476E-18
    0.884642E-01   -0.471312E-03    0.115438E-18
    0.884588E-01   -0.458955E-03    0.112412E-18
    0.884538E-01   -0.446659E-03    0.109400E-18
    0.884491E-01   -0.434437E-03    0.106406E-18
    0.884446E-01   -0.422302E-03    0.103434E-18
    0.884404E-01   -0.410266E-03    0.100486E-18
    0.884365E-01   -0.398342E-03    0.975656E-19
    0.885124E-01   -0.492136E-03    0.120538E-18
    0.885057E-01   -0.480749E-03    0.117749E-18
    0.884993E-01   -0.469346E-03    0.114957E-18
    0.884931E-01   -0.457943E-03    0.112164E-18
    0.884872E-01   -0.446551E-03    0.109373E-18
    0.884816E-01   -0.435185E-03    0.106590E-18
    0.884762E-01   -0.423859E-03    0.103815E-18
    0.884711E-01   -0.412584E-03    0.101054E-18
    0.884663E-01   -0.401374E-03    0.983082E-19
    0.884617E-01   -0.390240E-03    0.955811E-19
    0.884574E-01   -0.379193E-03    0.928754E-19
    0.885294E-01   -0.463449E-03    0.113512E-18
    0.885226E-01   -0.453082E-03    0.110973E-18
    0.885160E-01   -0.442685E-03    0.108427E-18
    0.885097E-01   -0.432271E-03    0.105876E-18
    0.885036E-01   -0.421853E-03    0.103324E-18
    0.884978E-01   -0.411443E-03    0.100775E-18
    0.884922E-01   -0.401054E-03    0.982299E-19
    0.884869E-01   -0.390697E-03    0.956932E-19
    0.884818E-01   -0.380384E-03    0.931672E-19
    0.884770E-01   -0.370126E-03    0.906546E-19
    0.884724E-01   -0.359933E-03    0.881581E-19
    0.885488E-01   -0.434953E-03    0.106533E-18
    0.885419E-01   -0.425549E-03    0.104229E-18
    0.885352E-01   -0.416104E-03    0.101916E-18
    0.885287E-01   -0.406630E-03    0.995957E-19
    0.885225E-01   -0.397139E-03    0.972710E-19
    0.885165E-01   -0.387641E-03    0.949447E-19
    0.885107E-01   -0.378148E-03    0.926196E-19
    0.885051E-01   -0.368671E-03    0.902983E-19
    0.884998E-01   -0.359220E-03    0.879834E-19
    0.884947E-01   -0.349805E-03    0.856775E-19
    0.884898E-01   -0.340437E-03    0.833830E-19
    0.885682E-01   -0.406665E-03    0.996043E-19
    0.885612E-01   -0.398166E-03    0.975224E-19
    0.885544E-01   -0.389617E-03    0.954286E-19
    0.885478E-01   -0.381030E-03    0.933254E-19
    0.885414E-01   -0.372414E-03    0.912152E-19
    0.885352E-01   -0.363781E-03    0.891007E-19
    0.885292E-01   -0.355140E-03    0.869841E-19
    0.885234E-01   -0.346500E-03    0.848681E-19
    0.885179E-01   -0.337872E-03    0.827549E-19
    0.885125E-01   -0.329266E-03    0.806469E-19
    0.885074E-01   -0.320690E-03    0.785463E-19
    0.885865E-01   -0.378624E-03    0.927362E-19
    0.885794E-01   -0.370970E-03    0.908613E-19
    0.885725E-01   -0.363261E-03    0.889732E-19
    0.885658E-01   -0.355507E-03    0.870740E-19
    0.885593E-01   -0.347716E-03    0.851660E-19
    0.885530E-01   -0.339899E-03    0.832513E-19
    0.885468E-01   -0.332064E-03    0.813323E-19
    0.885409E-01   -0.324220E-03    0.794111E-19
    0.885351E-01   -0.316376E-03    0.774899E-19
    0.885296E-01   -0.308541E-03    0.755707E-19
    0.885242E-01   -0.300722E-03    0.736558E-19
    0.886034E-01   -0.350862E-03    0.859365E-19
    0.885963E-01   -0.343996E-03    0.842548E-19
    0.885894E-01   -0.337073E-03    0.825591E-19
    0.885826E-01   -0.330100E-03    0.808512E-19
    0.885760E-01   -0.323086E-03    0.791331E-19
    0.885696E-01   -0.316038E-03    0.774069E-19
    0.885633E-01   -0.308964E-03    0.756745E-19
    0.885573E-01   -0.301874E-03    0.739378E-19
    0.885513E-01   -0.294774E-03    0.721988E-19
    0.885456E-01   -0.287672E-03    0.704594E-19
    0.885400E-01   -0.280577E-03    0.687216E-19
    0.886191E-01   -0.323407E-03    0.792120E-19
    0.886120E-01   -0.317276E-03    0.777103E-19
    0.886050E-01   -0.311086E-03    0.761942E-19
    0.885982E-01   -0.304845E-03    0.746654E-19
    0.885915E-01   -0.298558E-03    0.731256E-19
    0.885850E-01   -0.292234E-03    0.715766E-19
    0.885787E-01   -0.285879E-03    0.700201E-19
    0.885725E-01   -0.279500E-03    0.684578E-19
    0.885664E-01   -0.273105E-03    0.668915E-19
    0.885605E-01   -0.266701E-03    0.653230E-19
    0.885548E-01   -0.260295E-03    0.637538E-19
    0.886335E-01   -0.296280E-03    0.725676E-19
    0.886264E-01   -0.290832E-03    0.712334E-19
    0.886194E-01   -0.285327E-03    0.698849E-19
    0.886126E-01   -0.279769E-03    0.685235E-19
    0.886059E-01   -0.274164E-03    0.671508E-19
    0.885993E-01   -0.268519E-03    0.657683E-19
    0.885929E-01   -0.262841E-03    0.643774E-19
    0.885866E-01   -0.257134E-03    0.629797E-19
    0.885805E-01   -0.251407E-03    0.615769E-19
    0.885745E-01   -0.245664E-03    0.601703E-19
    0.885686E-01   -0.239912E-03    0.587615E-19
    0.886470E-01   -0.269493E-03    0.660067E-19
    0.886399E-01   -0.264682E-03    0.648283E-19
    0.886330E-01   -0.259814E-03    0.636360E-19
    0.886261E-01   -0.254894E-03    0.624310E-19
    0.886194E-01   -0.249928E-03    0.612147E-19
    0.886128E-01   -0.244921E-03    0.599883E-19
    0.886063E-01   -0.239878E-03    0.587532E-19
    0.885999E-01   -0.234805E-03    0.575107E-19
    0.885937E-01   -0.229708E-03    0.562622E-19
    0.885876E-01   -0.224591E-03    0.550090E-19
    0.885816E-01   -0.219461E-03    0.537525E-19
    0.886606E-01   -0.243061E-03    0.595327E-19
    0.886536E-01   -0.238839E-03    0.584987E-19
    0.886467E-01   -0.234563E-03    0.574515E-19
    0.886398E-01   -0.230238E-03    0.563921E-19
    0.886331E-01   -0.225868E-03    0.553217E-19
    0.886265E-01   -0.221457E-03    0.542414E-19
    0.886200E-01   -0.217011E-03    0.531523E-19
    0.886135E-01   -0.212533E-03    0.520557E-19
    0.886072E-01   -0.208030E-03    0.509526E-19
    0.886011E-01   -0.203505E-03    0.498443E-19
    0.885950E-01   -0.198963E-03    0.487319E-19
</DataArray>
</PointData>
<CellData>
<DataArray Name="DP" type="Float64" format="ascii" NumberOfComponents="1">
      0.000000E+0000
      0.000000E+0000
      0.000000E+0000
      0.000000E+0000
      0.000000E+0000
      0.000000E+0000
      0.000000E+0000
      0.000000E+0000
      0.000000E+0000
      0.000000E+0000
      0.000000E+0000
      0.000000E+0000
      0.000000E+0000
      0.000000E+0000
      0.000000E+0000
      0.000000E+0000
      0.000000E+0000
      0.000000E+0000
      0.000000E+0000
      0.000000E+0000
      0.000000E+0000
      0.000000E+0000
      0.000000E+0000
      0.000000E+0000
      0.000000E+0000
      0.000000E+0000
      0.000000E+0000
      0.000000E+0000
      0.000000E+0000
      0.000000E+0000
      0.000000E+0000
      0.000000E+0000
      0.000000E+0000
      0.000000E+0000
      0.000000E+0000
      0.000000E+0000
      0.000000E+0000
      0.000000E+0000
      0.000000E+0000
      0.000000E+0000
      0.000000E+0000
      0.000000E+0000
      0.000000E+0000
      0.000000E+0000
      0.000000E+0000
      0.000000E+0000
      0.000000E+0000
      0.000000E+0000
      0.000000E+0000
      0.000000E+0000
      0.000000E+0000
      0.000000E+0000
      0.000000E+0000
      0.000000E+0000
      0.000000E+0000
      0.000000E+0000
      0.000000E+0000
      0.000000E+0000
      0.000000E+0000
      0.000000E+0000
      0.000000E+0000
      0.000000E+0000
      0.000000E+0000
      0.000000E+0000
      0.000000E+0000
      0.000000E+0000
      0.000000E+0000
      0.000000E+0000
      0.000000E+0000
      0.000000E+0000
      0.000000E+0000
      0.000000E+0000
      0.000000E+0000
      0.000000E+0000
      0.000000E+0000
      0.000000E+0000
      0.000000E+0000
      0.000000E+0000
      0.000000E+0000
      0.000000E+0000
      0.000000E+0000
      0.000000E+0000
      0.000000E+0000
      0.000000E+0000
      0.000000E+0000
      0.000000E+0000
      0.000000E+0000
      0.000000E+0000
      0.000000E+0000
      0.000000E+0000
      0.000000E+0000
      0.000000E+0000
      0.000000E+0000
      0.000000E+0000
      0.000000E+0000
      0.000000E+0000
      0.000000E+0000
      0.000000E+0000
      0.000000E+0000
      0.000000E+0000
</DataArray>
<DataArray Name="P" type="Float64" format="ascii" NumberOfComponents="1">
      0.392627E+0000
      0.387310E+0000
      0.381939E+0000
      0.376515E+0000
      0.371036E+0000
      0.365503E+0000
      0.359914E+0000
      0.354269E+0000
      0.348569E+0000
      0.342811E+0000
      0.392627E+0000
      0.387309E+0000
      0.381939E+0000
      0.376514E+0000
      0.371036E+0000
      0.365502E+0000
      0.359913E+0000
      0.354269E+0000
      0.348568E+0000
      0.342810E+0000
      0.392627E+0000
      0.387309E+0000
      0.381938E+0000
      0.376514E+0000
      0.371035E+0000
      0.365502E+0000
      0.359913E+0000
      0.354268E+0000
      0.348567E+0000
      0.342809E+0000
      0.392627E+0000
      0.387309E+0000
      0.381938E+0000
      0.376514E+0000
      0.371035E+0000
      0.365501E+0000
      0.359912E+0000
      0.354268E+0000
      0.348566E+0000
      0.342808E+0000
      0.392626E+0000
      0.387309E+0000
      0.381938E+0000
      0.376513E+0000
      0.371034E+0000
      0.365501E+0000
      0.359912E+0000
      0.354267E+0000
      0.348566E+0000
      0.342808E+0000
      0.392626E+0000
      0.387309E+0000
      0.381938E+0000
      0.376513E+0000
      0.371034E+0000
      0.365500E+0000
      0.359911E+0000
      0.354267E+0000
      0.348565E+0000
      0.342807E+0000
      0.392626E+0000
      0.387308E+0000
      0.381937E+0000
      0.376513E+0000
      0.371034E+0000
      0.365500E+0000
      0.359911E+0000
      0.354266E+0000
      0.348565E+0000
      0.342806E+0000
      0.392626E+0000
      0.387308E+0000
      0.381937E+0000
      0.376512E+0000
      0.371033E+0000
      0.365500E+0000
      0.359910E+0000
      0.354265E+0000
      0.348564E+0000
      0.342806E+0000
      0.392626E+0000
      0.387308E+0000
      0.381937E+0000
      0.376512E+0000
      0.371033E+0000
      0.365499E+0000
      0.359910E+0000
      0.354265E+0000
      0.348563E+0000
      0.342805E+0000
      0.392625E+0000
      0.387307E+0000
      0.381936E+0000
      0.376512E+0000
      0.371032E+0000
      0.365499E+0000
      0.359909E+0000
      0.354264E+0000
      0.348563E+0000
      0.342804E+0000
</DataArray>
<DataArray Name="RHO" type="Float64" format="ascii" NumberOfComponents="1">
      0.117197E+0001
      0.117197E+0001
      0.117197E+0001
      0.117197E+0001
      0.117197E+0001
      0.117197E+0001
      0.117197E+0001
      0.117197E+0001
      0.117197E+0001
      0.117197E+0001
      0.117197E+0001
      0.117197E+0001
      0.117197E+0001
      0.117197E+0001
      0.117197E+0001
      0.117197E+0001
      0.117197E+0001
      0.117197E+0001
      0.117197E+0001
      0.117197E+0001
      0.117197E+0001
      0.117197E+0001
      0.117197E+0001
      0.117197E+0001
      0.117197E+0001
      0.117197E+0001
      0.117197E+0001
      0.117197E+0001
      0.117197E+0001
      0.117197E+0001
      0.117197E+0001
      0.117197E+0001
      0.117197E+0001
      0.117197E+0001
      0.117197E+0001
      0.117197E+0001
      0.117197E+0001
      0.117197E+0001
      0.117197E+0001
      0.117197E+0001
      0.117197E+0001
      0.117197E+0001
      0.117197E+0001
      0.117197E+0001
      0.117197E+0001
      0.117197E+0001
      0.117197E+0001
      0.117197E+0001
      0.117197E+0001
      0.117197E+0001
      0.117197E+0001
      0.117197E+0001
      0.117197E+0001
      0.117197E+0001
      0.117197E+0001
      0.117197E+0001
      0.117197E+0001
      0.117197E+0001
      0.117197E+0001
      0.117197E+0001
      0.117197E+0001
      0.117197E+0001