<?xml version="1.0"?>
<VTKFile type="StructuredGrid" version="0.1" byte_order="LittleEndian">
<StructuredGrid WholeExtent="          50          60          40          50           0           1">
<Piece Extent="          50          60          40          50           0           1">
<Points>
<DataArray NumberOfComponents="3" type="Float64" format="ascii">
    0.163301E-01    0.912275E-02    0.000000E+00
    0.167467E-01    0.912275E-02    0.000000E+00
    0.171675E-01    0.912275E-02    0.000000E+00
    0.175925E-01    0.912275E-02    0.000000E+00
    0.180217E-01    0.912275E-02    0.000000E+00
    0.184553E-01    0.912275E-02    0.000000E+00
    0.188932E-01    0.912275E-02    0.000000E+00
    0.193354E-01    0.912275E-02    0.000000E+00
    0.197821E-01    0.912275E-02    0.000000E+00
    0.202332E-01    0.912275E-02    0.000000E+00
    0.206889E-01    0.912275E-02    0.000000E+00
    0.163301E-01    0.940718E-02    0.000000E+00
    0.167467E-01    0.940718E-02    0.000000E+00
    0.171675E-01    0.940718E-02    0.000000E+00
    0.175925E-01    0.940718E-02    0.000000E+00
    0.180217E-01    0.940718E-02    0.000000E+00
    0.184553E-01    0.940718E-02    0.000000E+00
    0.188932E-01    0.940718E-02    0.000000E+00
    0.193354E-01    0.940718E-02    0.000000E+00
    0.197821E-01    0.940718E-02    0.000000E+00
    0.202332E-01    0.940718E-02    0.000000E+00
    0.206889E-01    0.940718E-02    0.000000E+00
    0.163301E-01    0.970015E-02    0.000000E+00
    0.167467E-01    0.970015E-02    0.000000E+00
    0.171675E-01    0.970015E-02    0.000000E+00
    0.175925E-01    0.970015E-02    0.000000E+00
    0.180217E-01    0.970015E-02    0.000000E+00
    0.184553E-01    0.970015E-02    0.000000E+00
    0.188932E-01    0.970015E-02    0.000000E+00
    0.193354E-01    0.970015E-02    0.000000E+00
    0.197821E-01    0.970015E-02    0.000000E+00
    0.202332E-01    0.970015E-02    0.000000E+00
    0.206889E-01    0.970015E-02    0.000000E+00
    0.163301E-01    0.100019E-01    0.000000E+00
    0.167467E-01    0.100019E-01    0.000000E+00
    0.171675E-01    0.100019E-01    0.000000E+00
    0.175925E-01    0.100019E-01    0.000000E+00
    0.180217E-01    0.100019E-01    0.000000E+00
    0.184553E-01    0.100019E-01    0.000000E+00
    0.188932E-01    0.100019E-01    0.000000E+00
    0.193354E-01    0.100019E-01    0.000000E+00
    0.197821E-01    0.100019E-01    0.000000E+00
    0.202332E-01    0.100019E-01    0.000000E+00
    0.206889E-01    0.100019E-01    0.000000E+00
    0.163301E-01    0.103127E-01    0.000000E+00
    0.167467E-01    0.103127E-01    0.000000E+00
    0.171675E-01    0.103127E-01    0.000000E+00
    0.175925E-01    0.103127E-01    0.000000E+00
    0.180217E-01    0.103127E-01    0.000000E+00
    0.184553E-01    0.103127E-01    0.000000E+00
    0.188932E-01    0.103127E-01    0.000000E+00
    0.193354E-01    0.103127E-01    0.000000E+00
    0.197821E-01    0.103127E-01    0.000000E+00
    0.202332E-01    0.103127E-01    0.000000E+00
    0.206889E-01    0.103127E-01    0.000000E+00
    0.163301E-01    0.106328E-01    0.000000E+00
    0.167467E-01    0.106328E-01    0.000000E+00
    0.171675E-01    0.106328E-01    0.000000E+00
    0.175925E-01    0.106328E-01    0.000000E+00
    0.180217E-01    0.106328E-01    0.000000E+00
    0.184553E-01    0.106328E-01    0.000000E+00
    0.188932E-01    0.106328E-01    0.000000E+00
    0.193354E-01    0.106328E-01    0.000000E+00
    0.197821E-01    0.106328E-01    0.000000E+00
    0.202332E-01    0.106328E-01    0.000000E+00
    0.206889E-01    0.106328E-01    0.000000E+00
    0.163301E-01    0.109626E-01    0.000000E+00
    0.167467E-01    0.109626E-01    0.000000E+00
    0.171675E-01    0.109626E-01    0.000000E+00
    0.175925E-01    0.109626E-01    0.000000E+00
    0.180217E-01    0.109626E-01    0.000000E+00
    0.184553E-01    0.109626E-01    0.000000E+00
    0.188932E-01    0.109626E-01    0.000000E+00
    0.193354E-01    0.109626E-01    0.000000E+00
    0.197821E-01    0.109626E-01    0.000000E+00
    0.202332E-01    0.109626E-01    0.000000E+00
    0.206889E-01    0.109626E-01    0.000000E+00
    0.163301E-01    0.113022E-01    0.000000E+00
    0.167467E-01    0.113022E-01    0.000000E+00
    0.171675E-01    0.113022E-01    0.000000E+00
    0.175925E-01    0.113022E-01    0.000000E+00
    0.180217E-01    0.113022E-01    0.000000E+00
    0.184553E-01    0.113022E-01    0.000000E+00
    0.188932E-01    0.113022E-01    0.000000E+00
    0.193354E-01    0.113022E-01    0.000000E+00
    0.197821E-01    0.113022E-01    0.000000E+00
    0.202332E-01    0.113022E-01    0.000000E+00
    0.206889E-01    0.113022E-01    0.000000E+00
    0.163301E-01    0.116520E-01    0.000000E+00
    0.167467E-01    0.116520E-01    0.000000E+00
    0.171675E-01    0.116520E-01    0.000000E+00
    0.175925E-01    0.116520E-01    0.000000E+00
    0.180217E-01    0.116520E-01    0.000000E+00
    0.184553E-01    0.116520E-01    0.000000E+00
    0.188932E-01    0.116520E-01    0.000000E+00
    0.193354E-01    0.116520E-01    0.000000E+00
    0.197821E-01    0.116520E-01    0.000000E+00
    0.202332E-01    0.116520E-01    0.000000E+00
    0.206889E-01    0.116520E-01    0.000000E+00
    0.163301E-01    0.120123E-01    0.000000E+00
    0.167467E-01    0.120123E-01    0.000000E+00
    0.171675E-01    0.120123E-01    0.000000E+00
    0.175925E-01    0.120123E-01    0.000000E+00
    0.180217E-01    0.120123E-01    0.000000E+00
    0.184553E-01    0.120123E-01    0.000000E+00
    0.188932E-01    0.120123E-01    0.000000E+00
    0.193354E-01    0.120123E-01    0.000000E+00
    0.197821E-01    0.120123E-01    0.000000E+00
    0.202332E-01    0.120123E-01    0.000000E+00
    0.206889E-01    0.120123E-01    0.000000E+00
    0.163301E-01    0.123834E-01    0.000000E+00
    0.167467E-01    0.123834E-01    0.000000E+00
    0.171675E-01    0.123834E-01    0.000000E+00
    0.175925E-01    0.123834E-01    0.000000E+00
    0.180217E-01    0.123834E-01    0.000000E+00
    0.184553E-01    0.123834E-01    0.000000E+00
    0.188932E-01    0.123834E-01    0.000000E+00
    0.193354E-01    0.123834E-01    0.000000E+00
    0.197821E-01    0.123834E-01    0.000000E+00
    0.202332E-01    0.123834E-01    0.000000E+00
    0.206889E-01    0.123834E-01    0.000000E+00
    0.163301E-01    0.912275E-02    0.160000E-02
    0.167467E-01    0.912275E-02    0.160000E-02
    0.171675E-01    0.912275E-02    0.160000E-02
    0.175925E-01    0.912275E-02    0.160000E-02
    0.180217E-01    0.912275E-02    0.160000E-02
    0.184553E-01    0.912275E-02    0.160000E-02
    0.188932E-01    0.912275E-02    0.160000E-02
    0.193354E-01    0.912275E-02    0.160000E-02
    0.197821E-01    0.912275E-02    0.160000E-02
    0.202332E-01    0.912275E-02    0.160000E-02
    0.206889E-01    0.912275E-02    0.160000E-02
    0.163301E-01    0.940718E-02    0.160000E-02
    0.167467E-01    0.940718E-02    0.160000E-02
    0.171675E-01    0.940718E-02    0.160000E-02
    0.175925E-01    0.940718E-02    0.160000E-02
    0.180217E-01    0.940718E-02    0.160000E-02
    0.184553E-01    0.940718E-02    0.160000E-02
    0.188932E-01    0.940718E-02    0.160000E-02
    0.193354E-01    0.940718E-02    0.160000E-02
    0.197821E-01    0.940718E-02    0.160000E-02
    0.202332E-01    0.940718E-02    0.160000E-02
    0.206889E-01    0.940718E-02    0.160000E-02
    0.163301E-01    0.970015E-02    0.160000E-02
    0.167467E-01    0.970015E-02    0.160000E-02
    0.171675E-01    0.970015E-02    0.160000E-02
    0.175925E-01    0.970015E-02    0.160000E-02
    0.180217E-01    0.970015E-02    0.160000E-02
    0.184553E-01    0.970015E-02    0.160000E-02
    0.188932E-01    0.970015E-02    0.160000E-02
    0.193354E-01    0.970015E-02    0.160000E-02
    0.197821E-01    0.970015E-02    0.160000E-02
    0.202332E-01    0.970015E-02    0.160000E-02
    0.206889E-01    0.970015E-02    0.160000E-02
    0.163301E-01    0.100019E-01    0.160000E-02
    0.167467E-01    0.100019E-01    0.160000E-02
    0.171675E-01    0.100019E-01    0.160000E-02
    0.175925E-01    0.100019E-01    0.160000E-02
    0.180217E-01    0.100019E-01    0.160000E-02
    0.184553E-01    0.100019E-01    0.160000E-02
    0.188932E-01    0.100019E-01    0.160000E-02
    0.193354E-01    0.100019E-01    0.160000E-02
    0.197821E-01    0.100019E-01    0.160000E-02
    0.202332E-01    0.100019E-01    0.160000E-02
    0.206889E-01    0.100019E-01    0.160000E-02
    0.163301E-01    0.103127E-01    0.160000E-02
    0.167467E-01    0.103127E-01    0.160000E-02
    0.171675E-01    0.103127E-01    0.160000E-02
    0.175925E-01    0.103127E-01    0.160000E-02
    0.180217E-01    0.103127E-01    0.160000E-02
    0.184553E-01    0.103127E-01    0.160000E-02
    0.188932E-01    0.103127E-01    0.160000E-02
    0.193354E-01    0.103127E-01    0.160000E-02
    0.197821E-01    0.103127E-01    0.160000E-02
    0.202332E-01    0.103127E-01    0.160000E-02
    0.206889E-01    0.103127E-01    0.160000E-02
    0.163301E-01    0.106328E-01    0.160000E-02
    0.167467E-01    0.106328E-01    0.160000E-02
    0.171675E-01    0.106328E-01    0.160000E-02
    0.175925E-01    0.106328E-01    0.160000E-02
    0.180217E-01    0.106328E-01    0.160000E-02
    0.184553E-01    0.106328E-01    0.160000E-02
    0.188932E-01    0.106328E-01    0.160000E-02
    0.193354E-01    0.106328E-01    0.160000E-02
    0.197821E-01    0.106328E-01    0.160000E-02
    0.202332E-01    0.106328E-01    0.160000E-02
    0.206889E-01    0.106328E-01    0.160000E-02
    0.163301E-01    0.109626E-01    0.160000E-02
    0.167467E-01    0.109626E-01    0.160000E-02
    0.171675E-01    0.109626E-01    0.160000E-02
    0.175925E-01    0.109626E-01    0.160000E-02
    0.180217E-01    0.109626E-01    0.160000E-02
    0.184553E-01    0.109626E-01    0.160000E-02
    0.188932E-01    0.109626E-01    0.160000E-02
    0.193354E-01    0.109626E-01    0.160000E-02
    0.197821E-01    0.109626E-01    0.160000E-02
    0.202332E-01    0.109626E-01    0.160000E-02
    0.206889E-01    0.109626E-01    0.160000E-02
    0.163301E-01    0.113022E-01    0.160000E-02
    0.167467E-01    0.113022E-01    0.160000E-02
    0.171675E-01    0.113022E-01    0.160000E-02
    0.175925E-01    0.113022E-01    0.160000E-02
    0.180217E-01    0.113022E-01    0.160000E-02
    0.184553E-01    0.113022E-01    0.160000E-02
    0.188932E-01    0.113022E-01    0.160000E-02
    0.193354E-01    0.113022E-01    0.160000E-02
    0.197821E-01    0.113022E-01    0.160000E-02
    0.202332E-01    0.113022E-01    0.160000E-02
    0.206889E-01    0.113022E-01    0.160000E-02
    0.163301E-01    0.116520E-01    0.160000E-02
    0.167467E-01    0.116520E-01    0.160000E-02
    0.171675E-01    0.116520E-01    0.160000E-02
    0.175925E-01    0.116520E-01    0.160000E-02
    0.180217E-01    0.116520E-01    0.160000E-02
    0.184553E-01    0.116520E-01    0.160000E-02
    0.188932E-01    0.116520E-01    0.160000E-02
    0.193354E-01    0.116520E-01    0.160000E-02
    0.197821E-01    0.116520E-01    0.160000E-02
    0.202332E-01    0.116520E-01    0.160000E-02
    0.206889E-01    0.116520E-01    0.160000E-02
    0.163301E-01    0.120123E-01    0.160000E-02
    0.167467E-01    0.120123E-01    0.160000E-02
    0.171675E-01    0.120123E-01    0.160000E-02
    0.175925E-01    0.120123E-01    0.160000E-02
    0.180217E-01    0.120123E-01    0.160000E-02
    0.184553E-01    0.120123E-01    0.160000E-02
    0.188932E-01    0.120123E-01    0.160000E-02
    0.193354E-01    0.120123E-01    0.160000E-02
    0.197821E-01    0.120123E-01    0.160000E-02
    0.202332E-01    0.120123E-01    0.160000E-02
    0.206889E-01    0.120123E-01    0.160000E-02
    0.163301E-01    0.123834E-01    0.160000E-02
    0.167467E-01    0.123834E-01    0.160000E-02
    0.171675E-01    0.123834E-01    0.160000E-02
    0.175925E-01    0.123834E-01    0.160000E-02
    0.180217E-01    0.123834E-01    0.160000E-02
    0.184553E-01    0.123834E-01    0.160000E-02
    0.188932E-01    0.123834E-01    0.160000E-02
    0.193354E-01    0.123834E-01    0.160000E-02
    0.197821E-01    0.123834E-01    0.160000E-02
    0.202332E-01    0.123834E-01    0.160000E-02
    0.206889E-01    0.123834E-01    0.160000E-02
</DataArray>
</Points>
<PointData>
<DataArray Name="Velocity" type="Float64" format="ascii" NumberOfComponents="3">
    0.860659E-01   -0.179131E-02    0.000000E+00
    0.861574E-01   -0.169469E-02    0.000000E+00
    0.862462E-01   -0.159079E-02    0.000000E+00
    0.863325E-01   -0.149356E-02    0.000000E+00
    0.864161E-01   -0.140255E-02    0.000000E+00
    0.864971E-01   -0.131736E-02    0.000000E+00
    0.865755E-01   -0.123760E-02    0.000000E+00
    0.866512E-01   -0.116290E-02    0.000000E+00
    0.867244E-01   -0.109294E-02    0.000000E+00
    0.867950E-01   -0.102740E-02    0.000000E+00
    0.868631E-01   -0.965989E-03    0.000000E+00
    0.861255E-01   -0.179744E-02    0.000000E+00
    0.862127E-01   -0.170186E-02    0.000000E+00
    0.862976E-01   -0.159895E-02    0.000000E+00
    0.863802E-01   -0.150251E-02    0.000000E+00
    0.864605E-01   -0.141213E-02    0.000000E+00
    0.865383E-01   -0.132741E-02    0.000000E+00
    0.866138E-01   -0.124800E-02    0.000000E+00
    0.866868E-01   -0.117354E-02    0.000000E+00
    0.867575E-01   -0.110372E-02    0.000000E+00
    0.868257E-01   -0.103825E-02    0.000000E+00
    0.868917E-01   -0.976826E-03    0.000000E+00
    0.861682E-01   -0.180343E-02    0.000000E+00
    0.862525E-01   -0.170892E-02    0.000000E+00
    0.863348E-01   -0.160703E-02    0.000000E+00
    0.864149E-01   -0.151141E-02    0.000000E+00
    0.864928E-01   -0.142168E-02    0.000000E+00
    0.865684E-01   -0.133746E-02    0.000000E+00
    0.866418E-01   -0.125841E-02    0.000000E+00
    0.867130E-01   -0.118421E-02    0.000000E+00
    0.867818E-01   -0.111455E-02    0.000000E+00
    0.868485E-01   -0.104915E-02    0.000000E+00
    0.869129E-01   -0.987737E-03    0.000000E+00
    0.862209E-01   -0.180873E-02    0.000000E+00
    0.863017E-01   -0.171536E-02    0.000000E+00
    0.863806E-01   -0.161456E-02    0.000000E+00
    0.864576E-01   -0.151983E-02    0.000000E+00
    0.865326E-01   -0.143080E-02    0.000000E+00
    0.866056E-01   -0.134713E-02    0.000000E+00
    0.866765E-01   -0.126850E-02    0.000000E+00
    0.867453E-01   -0.119460E-02    0.000000E+00
    0.868119E-01   -0.112514E-02    0.000000E+00
    0.868765E-01   -0.105986E-02    0.000000E+00
    0.869390E-01   -0.998484E-03    0.000000E+00
    0.862835E-01   -0.181278E-02    0.000000E+00
    0.863601E-01   -0.172066E-02    0.000000E+00
    0.864352E-01   -0.162106E-02    0.000000E+00
    0.865085E-01   -0.152731E-02    0.000000E+00
    0.865801E-01   -0.143908E-02    0.000000E+00
    0.866499E-01   -0.135606E-02    0.000000E+00
    0.867178E-01   -0.127792E-02    0.000000E+00
    0.867838E-01   -0.120440E-02    0.000000E+00
    0.868479E-01   -0.113520E-02    0.000000E+00
    0.869101E-01   -0.107009E-02    0.000000E+00
    0.869703E-01   -0.100881E-02    0.000000E+00
    0.863557E-01   -0.181504E-02    0.000000E+00
    0.864275E-01   -0.172430E-02    0.000000E+00
    0.864981E-01   -0.162604E-02    0.000000E+00
    0.865673E-01   -0.153342E-02    0.000000E+00
    0.866350E-01   -0.144611E-02    0.000000E+00
    0.867012E-01   -0.136384E-02    0.000000E+00
    0.867657E-01   -0.128631E-02    0.000000E+00
    0.868285E-01   -0.121326E-02    0.000000E+00
    0.868896E-01   -0.114442E-02    0.000000E+00
    0.869491E-01   -0.107957E-02    0.000000E+00
    0.870067E-01   -0.101846E-02    0.000000E+00
    0.864369E-01   -0.181498E-02    0.000000E+00
    0.865035E-01   -0.172578E-02    0.000000E+00
    0.865692E-01   -0.162904E-02    0.000000E+00
    0.866338E-01   -0.153771E-02    0.000000E+00
    0.866972E-01   -0.145149E-02    0.000000E+00
    0.867593E-01   -0.137011E-02    0.000000E+00
    0.868200E-01   -0.129332E-02    0.000000E+00
    0.868793E-01   -0.122086E-02    0.000000E+00
    0.869371E-01   -0.115249E-02    0.000000E+00
    0.869934E-01   -0.108800E-02    0.000000E+00
    0.870482E-01   -0.102716E-02    0.000000E+00
    0.865269E-01   -0.181211E-02    0.000000E+00
    0.865879E-01   -0.172464E-02    0.000000E+00
    0.866483E-01   -0.162963E-02    0.000000E+00
    0.867079E-01   -0.153977E-02    0.000000E+00
    0.867666E-01   -0.145480E-02    0.000000E+00
    0.868242E-01   -0.137449E-02    0.000000E+00
    0.868808E-01   -0.129858E-02    0.000000E+00
    0.869362E-01   -0.122686E-02    0.000000E+00
    0.869903E-01   -0.115910E-02    0.000000E+00
    0.870432E-01   -0.109509E-02    0.000000E+00
    0.870947E-01   -0.103463E-02    0.000000E+00
    0.866258E-01   -0.180596E-02    0.000000E+00
    0.866808E-01   -0.172042E-02    0.000000E+00
    0.867354E-01   -0.162735E-02    0.000000E+00
    0.867896E-01   -0.153917E-02    0.000000E+00
    0.868432E-01   -0.145566E-02    0.000000E+00
    0.868961E-01   -0.137660E-02    0.000000E+00
    0.869481E-01   -0.130176E-02    0.000000E+00
    0.869993E-01   -0.123094E-02    0.000000E+00
    0.870494E-01   -0.116394E-02    0.000000E+00
    0.870986E-01   -0.110055E-02    0.000000E+00
    0.871466E-01   -0.104061E-02    0.000000E+00
    0.867336E-01   -0.179606E-02    0.000000E+00
    0.867822E-01   -0.171267E-02    0.000000E+00
    0.868308E-01   -0.162177E-02    0.000000E+00
    0.868792E-01   -0.153551E-02    0.000000E+00
    0.869274E-01   -0.145366E-02    0.000000E+00
    0.869751E-01   -0.137605E-02    0.000000E+00
    0.870223E-01   -0.130247E-02    0.000000E+00
    0.870689E-01   -0.123273E-02    0.000000E+00
    0.871147E-01   -0.116666E-02    0.000000E+00
    0.871598E-01   -0.110407E-02    0.000000E+00
    0.872040E-01   -0.104479E-02    0.000000E+00
    0.868504E-01   -0.178192E-02    0.000000E+00
    0.868922E-01   -0.170090E-02    0.000000E+00
    0.869343E-01   -0.161243E-02    0.000000E+00
    0.869767E-01   -0.152832E-02    0.000000E+00
    0.870191E-01   -0.144838E-02    0.000000E+00
    0.870614E-01   -0.137244E-02    0.000000E+00
    0.871034E-01   -0.130033E-02    0.000000E+00
    0.871451E-01   -0.123188E-02    0.000000E+00
    0.871863E-01   -0.116692E-02    0.000000E+00
    0.872270E-01   -0.110530E-02    0.000000E+00
    0.872671E-01   -0.104685E-02    0.000000E+00
    0.860523E-01   -0.180572E-02    0.442274E-18
    0.861447E-01   -0.169469E-02    0.415078E-18
    0.862345E-01   -0.159079E-02    0.389631E-18
    0.863216E-01   -0.149356E-02    0.365817E-18
    0.864060E-01   -0.140255E-02    0.343527E-18
    0.864877E-01   -0.131736E-02    0.322661E-18
    0.865668E-01   -0.123760E-02    0.303124E-18
    0.866432E-01   -0.116290E-02    0.284829E-18
    0.867169E-01   -0.109294E-02    0.267694E-18
    0.867881E-01   -0.102740E-02    0.251641E-18
    0.868567E-01   -0.965989E-03    0.236599E-18
    0.861255E-01   -0.181168E-02    0.443733E-18
    0.862127E-01   -0.170186E-02    0.416835E-18
    0.862976E-01   -0.159895E-02    0.391630E-18
    0.863802E-01   -0.150251E-02    0.368010E-18
    0.864605E-01   -0.141213E-02    0.345872E-18
    0.865383E-01   -0.132741E-02    0.325122E-18
    0.866138E-01   -0.124800E-02    0.305671E-18
    0.866868E-01   -0.117354E-02    0.287434E-18
    0.867575E-01   -0.110372E-02    0.270334E-18
    0.868257E-01   -0.103825E-02    0.254297E-18
    0.868917E-01   -0.976826E-03    0.239253E-18
    0.861682E-01   -0.181750E-02    0.445159E-18
    0.862525E-01   -0.170892E-02    0.418565E-18
    0.863348E-01   -0.160703E-02    0.393609E-18
    0.864149E-01   -0.151141E-02    0.370189E-18
    0.864928E-01   -0.142168E-02    0.348211E-18
    0.865684E-01   -0.133746E-02    0.327583E-18
    0.866418E-01   -0.125841E-02    0.308221E-18
    0.867130E-01   -0.118421E-02    0.290048E-18
    0.867818E-01   -0.111455E-02    0.272986E-18
    0.868485E-01   -0.104915E-02    0.256968E-18
    0.869129E-01   -0.987737E-03    0.241926E-18
    0.862209E-01   -0.182262E-02    0.446413E-18
    0.863017E-01   -0.171536E-02    0.420143E-18
    0.863806E-01   -0.161456E-02    0.395454E-18
    0.864576E-01   -0.151983E-02    0.372251E-18
    0.865326E-01   -0.143080E-02    0.350445E-18
    0.866056E-01   -0.134713E-02    0.329952E-18
    0.866765E-01   -0.126850E-02    0.310693E-18
    0.867453E-01   -0.119460E-02    0.292593E-18
    0.868119E-01   -0.112514E-02    0.275581E-18
    0.868765E-01   -0.105986E-02    0.259590E-18
    0.869390E-01   -0.998484E-03    0.244558E-18
    0.862835E-01   -0.182648E-02    0.447358E-18
    0.863601E-01   -0.172066E-02    0.421440E-18
    0.864352E-01   -0.162106E-02    0.397045E-18
    0.865085E-01   -0.152731E-02    0.374083E-18
    0.865801E-01   -0.143908E-02    0.352474E-18
    0.866499E-01   -0.135606E-02    0.332138E-18
    0.867178E-01   -0.127792E-02    0.313001E-18
    0.867838E-01   -0.120440E-02    0.294992E-18
    0.868479E-01   -0.113520E-02    0.278045E-18
    0.869101E-01   -0.107009E-02    0.262097E-18
    0.869703E-01   -0.100881E-02    0.247088E-18
    0.863557E-01   -0.182851E-02    0.447857E-18
    0.864275E-01   -0.172430E-02    0.422331E-18
    0.864981E-01   -0.162604E-02    0.398265E-18
    0.865673E-01   -0.153342E-02    0.375578E-18
    0.866350E-01   -0.144611E-02    0.354196E-18
    0.867012E-01   -0.136384E-02    0.334045E-18
    0.867657E-01   -0.128631E-02    0.315055E-18
    0.868285E-01   -0.121326E-02    0.297162E-18
    0.868896E-01   -0.114442E-02    0.280303E-18
    0.869491E-01   -0.107957E-02    0.264418E-18
    0.870067E-01   -0.101846E-02    0.249450E-18
    0.864369E-01   -0.182821E-02    0.447782E-18
    0.865035E-01   -0.172578E-02    0.422694E-18
    0.865692E-01   -0.162904E-02    0.399001E-18
    0.866338E-01   -0.153771E-02    0.376630E-18
    0.866972E-01   -0.145149E-02    0.355512E-18
    0.867593E-01   -0.137011E-02    0.335580E-18
    0.868200E-01   -0.129332E-02    0.316771E-18
    0.868793E-01   -0.122086E-02    0.299023E-18
    0.869371E-01   -0.115249E-02    0.282279E-18
    0.869934E-01   -0.108800E-02    0.266482E-18
    0.870482E-01   -0.102716E-02    0.251581E-18
    0.865269E-01   -0.182507E-02    0.447014E-18
    0.865879E-01   -0.172464E-02    0.422415E-18
    0.866483E-01   -0.162963E-02    0.399144E-18
    0.867079E-01   -0.153977E-02    0.377134E-18
    0.867666E-01   -0.145480E-02    0.356324E-18
    0.868242E-01   -0.137449E-02    0.336652E-18
    0.868808E-01   -0.129858E-02    0.318061E-18
    0.869362E-01   -0.122686E-02    0.300494E-18
    0.869903E-01   -0.115910E-02    0.283898E-18
    0.870432E-01   -0.109509E-02    0.268220E-18
    0.870947E-01   -0.103463E-02    0.253412E-18
    0.866258E-01   -0.181862E-02    0.445434E-18
    0.866808E-01   -0.172042E-02    0.421382E-18
    0.867354E-01   -0.162735E-02    0.398586E-18
    0.867896E-01   -0.153917E-02    0.376989E-18
    0.868432E-01   -0.145566E-02    0.356535E-18
    0.868961E-01   -0.137660E-02    0.337169E-18
    0.869481E-01   -0.130176E-02    0.318839E-18
    0.869993E-01   -0.123094E-02    0.301493E-18
    0.870494E-01   -0.116394E-02    0.285082E-18
    0.870986E-01   -0.110055E-02    0.269558E-18
    0.871466E-01   -0.104061E-02    0.254876E-18
    0.867336E-01   -0.180839E-02    0.442928E-18
    0.867822E-01   -0.171267E-02    0.419482E-18
    0.868308E-01   -0.162177E-02    0.397220E-18
    0.868792E-01   -0.153551E-02    0.376090E-18
    0.869274E-01   -0.145366E-02    0.356045E-18
    0.869751E-01   -0.137605E-02    0.337035E-18
    0.870223E-01   -0.130247E-02    0.319013E-18
    0.870689E-01   -0.123273E-02    0.301933E-18
    0.871147E-01   -0.116666E-02    0.285749E-18
    0.871598E-01   -0.110407E-02    0.270419E-18
    0.872040E-01   -0.104479E-02    0.255899E-18
    0.868504E-01   -0.179389E-02    0.439376E-18
    0.868922E-01   -0.170090E-02    0.416600E-18
    0.869343E-01   -0.161243E-02    0.394932E-18
    0.869767E-01   -0.152832E-02    0.374331E-18
    0.870191E-01   -0.144838E-02    0.354751E-18
    0.870614E-01   -0.137244E-02    0.336152E-18
    0.871034E-01   -0.130033E-02    0.318490E-18
    0.871451E-01   -0.123188E-02    0.301724E-18
    0.871863E-01   -0.116692E-02    0.285814E-18
    0.872270E-01   -0.110530E-02    0.270721E-18
    0.872671E-01   -0.104685E-02    0.256405E-18
</DataArray>
</PointData>
<CellData>
<DataArray Name="DP" type="Float64" format="ascii" NumberOfComponents="1">
      0.000000E+0000
      0.000000E+0000
      0.000000E+0000
      0.000000E+0000
      0.000000E+0000
      0.000000E+0000
      0.000000E+0000
      0.000000E+0000
      0.000000E+0000
      0.000000E+0000
      0.000000E+0000
      0.000000E+0000
      0.000000E+0000
      0.000000E+0000
      0.000000E+0000
      0.000000E+0000
      0.000000E+0000
      0.000000E+0000
      0.000000E+0000
      0.000000E+0000
      0.000000E+0000
      0.000000E+0000
      0.000000E+0000
      0.000000E+0000
      0.000000E+0000
      0.000000E+0000
      0.000000E+0000
      0.000000E+0000
      0.000000E+0000
      0.000000E+0000
      0.000000E+0000
      0.000000E+0000
      0.000000E+0000
      0.000000E+0000
      0.000000E+0000
      0.000000E+0000
      0.000000E+0000
      0.000000E+0000
      0.000000E+0000
      0.000000E+0000
      0.000000E+0000
      0.000000E+0000
      0.000000E+0000
      0.000000E+0000
      0.000000E+0000
      0.000000E+0000
      0.000000E+0000
      0.000000E+0000
      0.000000E+0000
      0.000000E+0000
      0.000000E+0000
      0.000000E+0000
      0.000000E+0000
      0.000000E+0000
      0.000000E+0000
      0.000000E+0000
      0.000000E+0000
      0.000000E+0000
      0.000000E+0000
      0.000000E+0000
      0.000000E+0000
      0.000000E+0000
      0.000000E+0000
      0.000000E+0000
      0.000000E+0000
      0.000000E+0000
      0.000000E+0000
      0.000000E+0000
      0.000000E+0000
      0.000000E+0000
      0.000000E+0000
      0.000000E+0000
      0.000000E+0000
      0.000000E+0000
      0.000000E+0000
      0.000000E+0000
      0.000000E+0000
      0.000000E+0000
      0.000000E+0000
      0.000000E+0000
      0.000000E+0000
      0.000000E+0000
      0.000000E+0000
      0.000000E+0000
      0.000000E+0000
      0.000000E+0000
      0.000000E+0000
      0.000000E+0000
      0.000000E+0000
      0.000000E+0000
      0.000000E+0000
      0.000000E+0000
      0.000000E+0000
      0.000000E+0000
      0.000000E+0000
      0.000000E+0000
      0.000000E+0000
      0.000000E+0000
      0.000000E+0000
      0.000000E+0000
</DataArray>
<DataArray Name="P" type="Float64" format="ascii" NumberOfComponents="1">
      0.443078E+0000
      0.438262E+0000
      0.433398E+0000
      0.428486E+0000
      0.423525E+0000
      0.418516E+0000
      0.413455E+0000
      0.408344E+0000
      0.403182E+0000
      0.397969E+0000
      0.443075E+0000
      0.438259E+0000
      0.433396E+0000
      0.428484E+0000
      0.423523E+0000
      0.418513E+0000
      0.413453E+0000
      0.408342E+0000
      0.403181E+0000
      0.397968E+0000
      0.443072E+0000
      0.438256E+0000
      0.433393E+0000
      0.428481E+0000
      0.423521E+0000
      0.418511E+0000
      0.413451E+0000
      0.408340E+0000
      0.403179E+0000
      0.397966E+0000
      0.443069E+0000
      0.438254E+0000
      0.433390E+0000
      0.428479E+0000
      0.423518E+0000
      0.418509E+0000
      0.413449E+0000
      0.408338E+0000
      0.403177E+0000
      0.397965E+0000
      0.443066E+0000
      0.438251E+0000
      0.433388E+0000
      0.428476E+0000
      0.423516E+0000
      0.418506E+0000
      0.413446E+0000
      0.408336E+0000
      0.403175E+0000
      0.397963E+0000
      0.443062E+0000
      0.438248E+0000
      0.433385E+0000
      0.428474E+0000
      0.423513E+0000
      0.418504E+0000
      0.413444E+0000
      0.408334E+0000
      0.403173E+0000
      0.397961E+0000
      0.443059E+0000
      0.438245E+0000
      0.433382E+0000
      0.428471E+0000
      0.423511E+0000
      0.418501E+0000
      0.413442E+0000
      0.408332E+0000
      0.403171E+0000
      0.397959E+0000
      0.443056E+0000
      0.438241E+0000
      0.433379E+0000
      0.428468E+0000
      0.423508E+0000
      0.418499E+0000
      0.413439E+0000
      0.408329E+0000
      0.403169E+0000
      0.397957E+0000
      0.443052E+0000
      0.438238E+0000
      0.433376E+0000
      0.428465E+0000
      0.423505E+0000
      0.418496E+0000
      0.413437E+0000
      0.408327E+0000
      0.403166E+0000
      0.397954E+0000
      0.443049E+0000
      0.438235E+0000
      0.433373E+0000
      0.428462E+0000
      0.423503E+0000
      0.418493E+0000
      0.413434E+0000
      0.408325E+0000
      0.403164E+0000
      0.397952E+0000
</DataArray>
<DataArray Name="RHO" type="Float64" format="ascii" NumberOfComponents="1">
      0.117197E+0001
      0.117197E+0001
      0.117197E+0001
      0.117197E+0001
      0.117197E+0001
      0.117197E+0001
      0.117197E+0001
      0.117197E+0001
      0.117197E+0001
      0.117197E+0001
      0.117197E+0001
      0.117197E+0001
      0.117197E+0001
      0.117197E+0001
      0.117197E+0001
      0.117197E+0001
      0.117197E+0001
      0.117197E+0001
      0.117197E+0001
      0.117197E+0001
      0.117197E+0001
      0.117197E+0001
      0.117197E+0001
      0.117197E+0001
      0.117197E+0001
      0.117197E+0001
      0.117197E+0001
      0.117197E+0001
      0.117197E+0001
      0.117197E+0001
      0.117197E+0001
      0.117197E+0001
      0.117197E+0001
      0.117197E+0001
      0.117197E+0001
      0.117197E+0001
      0.117197E+0001
      0.117197E+0001
      0.117197E+0001
      0.117197E+0001
      0.117197E+0001
      0.117197E+0001
      0.117197E+0001
      0.117197E+0001
      0.117197E+0001
      0.117197E+0001
      0.117197E+0001
      0.117197E+0001
      0.117197E+0001
      0.117197E+0001
      0.117197E+0001
      0.117197E+0001
      0.117197E+0001
      0.117197E+0001
      0.117197E+0001
      0.117197E+0001
      0.117197E+0001
      0.117197E+0001
      0.117197E+0001
      0.117197E+0001
      0.117197E+0001
      0.117197E+0001