<?xml version="1.0"?>
<VTKFile type="StructuredGrid" version="0.1" byte_order="LittleEndian">
<StructuredGrid WholeExtent="         140         150          20          30           0           1">
<Piece Extent="         140         150          20          30           0           1">
<Points>
<DataArray NumberOfComponents="3" type="Float64" format="ascii">
    0.766837E-01    0.480136E-02    0.000000E+00
    0.777039E-01    0.480136E-02    0.000000E+00
    0.787343E-01    0.480136E-02    0.000000E+00
    0.797749E-01    0.480136E-02    0.000000E+00
    0.808260E-01    0.480136E-02    0.000000E+00
    0.818876E-01    0.480136E-02    0.000000E+00
    0.829598E-01    0.480136E-02    0.000000E+00
    0.840427E-01    0.480136E-02    0.000000E+00
    0.851365E-01    0.480136E-02    0.000000E+00
    0.862412E-01    0.480136E-02    0.000000E+00
    0.873569E-01    0.480136E-02    0.000000E+00
    0.766837E-01    0.499423E-02    0.000000E+00
    0.777039E-01    0.499423E-02    0.000000E+00
    0.787343E-01    0.499423E-02    0.000000E+00
    0.797749E-01    0.499423E-02    0.000000E+00
    0.808260E-01    0.499423E-02    0.000000E+00
    0.818876E-01    0.499423E-02    0.000000E+00
    0.829598E-01    0.499423E-02    0.000000E+00
    0.840427E-01    0.499423E-02    0.000000E+00
    0.851365E-01    0.499423E-02    0.000000E+00
    0.862412E-01    0.499423E-02    0.000000E+00
    0.873569E-01    0.499423E-02    0.000000E+00
    0.766837E-01    0.518324E-02    0.000000E+00
    0.777039E-01    0.518324E-02    0.000000E+00
    0.787343E-01    0.518324E-02    0.000000E+00
    0.797749E-01    0.518324E-02    0.000000E+00
    0.808260E-01    0.518324E-02    0.000000E+00
    0.818876E-01    0.518324E-02    0.000000E+00
    0.829598E-01    0.518324E-02    0.000000E+00
    0.840427E-01    0.518324E-02    0.000000E+00
    0.851365E-01    0.518324E-02    0.000000E+00
    0.862412E-01    0.518324E-02    0.000000E+00
    0.873569E-01    0.518324E-02    0.000000E+00
    0.766837E-01    0.536847E-02    0.000000E+00
    0.777039E-01    0.536847E-02    0.000000E+00
    0.787343E-01    0.536847E-02    0.000000E+00
    0.797749E-01    0.536847E-02    0.000000E+00
    0.808260E-01    0.536847E-02    0.000000E+00
    0.818876E-01    0.536847E-02    0.000000E+00
    0.829598E-01    0.536847E-02    0.000000E+00
    0.840427E-01    0.536847E-02    0.000000E+00
    0.851365E-01    0.536847E-02    0.000000E+00
    0.862412E-01    0.536847E-02    0.000000E+00
    0.873569E-01    0.536847E-02    0.000000E+00
    0.766837E-01    0.555000E-02    0.000000E+00
    0.777039E-01    0.555000E-02    0.000000E+00
    0.787343E-01    0.555000E-02    0.000000E+00
    0.797749E-01    0.555000E-02    0.000000E+00
    0.808260E-01    0.555000E-02    0.000000E+00
    0.818876E-01    0.555000E-02    0.000000E+00
    0.829598E-01    0.555000E-02    0.000000E+00
    0.840427E-01    0.555000E-02    0.000000E+00
    0.851365E-01    0.555000E-02    0.000000E+00
    0.862412E-01    0.555000E-02    0.000000E+00
    0.873569E-01    0.555000E-02    0.000000E+00
    0.766837E-01    0.572725E-02    0.000000E+00
    0.777039E-01    0.572725E-02    0.000000E+00
    0.787343E-01    0.572725E-02    0.000000E+00
    0.797749E-01    0.572725E-02    0.000000E+00
    0.808260E-01    0.572725E-02    0.000000E+00
    0.818876E-01    0.572725E-02    0.000000E+00
    0.829598E-01    0.572725E-02    0.000000E+00
    0.840427E-01    0.572725E-02    0.000000E+00
    0.851365E-01    0.572725E-02    0.000000E+00
    0.862412E-01    0.572725E-02    0.000000E+00
    0.873569E-01    0.572725E-02    0.000000E+00
    0.766837E-01    0.590981E-02    0.000000E+00
    0.777039E-01    0.590981E-02    0.000000E+00
    0.787343E-01    0.590981E-02    0.000000E+00
    0.797749E-01    0.590981E-02    0.000000E+00
    0.808260E-01    0.590981E-02    0.000000E+00
    0.818876E-01    0.590981E-02    0.000000E+00
    0.829598E-01    0.590981E-02    0.000000E+00
    0.840427E-01    0.590981E-02    0.000000E+00
    0.851365E-01    0.590981E-02    0.000000E+00
    0.862412E-01    0.590981E-02    0.000000E+00
    0.873569E-01    0.590981E-02    0.000000E+00
    0.766837E-01    0.609785E-02    0.000000E+00
    0.777039E-01    0.609785E-02    0.000000E+00
    0.787343E-01    0.609785E-02    0.000000E+00
    0.797749E-01    0.609785E-02    0.000000E+00
    0.808260E-01    0.609785E-02    0.000000E+00
    0.818876E-01    0.609785E-02    0.000000E+00
    0.829598E-01    0.609785E-02    0.000000E+00
    0.840427E-01    0.609785E-02    0.000000E+00
    0.851365E-01    0.609785E-02    0.000000E+00
    0.862412E-01    0.609785E-02    0.000000E+00
    0.873569E-01    0.609785E-02    0.000000E+00
    0.766837E-01    0.629154E-02    0.000000E+00
    0.777039E-01    0.629154E-02    0.000000E+00
    0.787343E-01    0.629154E-02    0.000000E+00
    0.797749E-01    0.629154E-02    0.000000E+00
    0.808260E-01    0.629154E-02    0.000000E+00
    0.818876E-01    0.629154E-02    0.000000E+00
    0.829598E-01    0.629154E-02    0.000000E+00
    0.840427E-01    0.629154E-02    0.000000E+00
    0.851365E-01    0.629154E-02    0.000000E+00
    0.862412E-01    0.629154E-02    0.000000E+00
    0.873569E-01    0.629154E-02    0.000000E+00
    0.766837E-01    0.649103E-02    0.000000E+00
    0.777039E-01    0.649103E-02    0.000000E+00
    0.787343E-01    0.649103E-02    0.000000E+00
    0.797749E-01    0.649103E-02    0.000000E+00
    0.808260E-01    0.649103E-02    0.000000E+00
    0.818876E-01    0.649103E-02    0.000000E+00
    0.829598E-01    0.649103E-02    0.000000E+00
    0.840427E-01    0.649103E-02    0.000000E+00
    0.851365E-01    0.649103E-02    0.000000E+00
    0.862412E-01    0.649103E-02    0.000000E+00
    0.873569E-01    0.649103E-02    0.000000E+00
    0.766837E-01    0.669651E-02    0.000000E+00
    0.777039E-01    0.669651E-02    0.000000E+00
    0.787343E-01    0.669651E-02    0.000000E+00
    0.797749E-01    0.669651E-02    0.000000E+00
    0.808260E-01    0.669651E-02    0.000000E+00
    0.818876E-01    0.669651E-02    0.000000E+00
    0.829598E-01    0.669651E-02    0.000000E+00
    0.840427E-01    0.669651E-02    0.000000E+00
    0.851365E-01    0.669651E-02    0.000000E+00
    0.862412E-01    0.669651E-02    0.000000E+00
    0.873569E-01    0.669651E-02    0.000000E+00
    0.766837E-01    0.480136E-02    0.160000E-02
    0.777039E-01    0.480136E-02    0.160000E-02
    0.787343E-01    0.480136E-02    0.160000E-02
    0.797749E-01    0.480136E-02    0.160000E-02
    0.808260E-01    0.480136E-02    0.160000E-02
    0.818876E-01    0.480136E-02    0.160000E-02
    0.829598E-01    0.480136E-02    0.160000E-02
    0.840427E-01    0.480136E-02    0.160000E-02
    0.851365E-01    0.480136E-02    0.160000E-02
    0.862412E-01    0.480136E-02    0.160000E-02
    0.873569E-01    0.480136E-02    0.160000E-02
    0.766837E-01    0.499423E-02    0.160000E-02
    0.777039E-01    0.499423E-02    0.160000E-02
    0.787343E-01    0.499423E-02    0.160000E-02
    0.797749E-01    0.499423E-02    0.160000E-02
    0.808260E-01    0.499423E-02    0.160000E-02
    0.818876E-01    0.499423E-02    0.160000E-02
    0.829598E-01    0.499423E-02    0.160000E-02
    0.840427E-01    0.499423E-02    0.160000E-02
    0.851365E-01    0.499423E-02    0.160000E-02
    0.862412E-01    0.499423E-02    0.160000E-02
    0.873569E-01    0.499423E-02    0.160000E-02
    0.766837E-01    0.518324E-02    0.160000E-02
    0.777039E-01    0.518324E-02    0.160000E-02
    0.787343E-01    0.518324E-02    0.160000E-02
    0.797749E-01    0.518324E-02    0.160000E-02
    0.808260E-01    0.518324E-02    0.160000E-02
    0.818876E-01    0.518324E-02    0.160000E-02
    0.829598E-01    0.518324E-02    0.160000E-02
    0.840427E-01    0.518324E-02    0.160000E-02
    0.851365E-01    0.518324E-02    0.160000E-02
    0.862412E-01    0.518324E-02    0.160000E-02
    0.873569E-01    0.518324E-02    0.160000E-02
    0.766837E-01    0.536847E-02    0.160000E-02
    0.777039E-01    0.536847E-02    0.160000E-02
    0.787343E-01    0.536847E-02    0.160000E-02
    0.797749E-01    0.536847E-02    0.160000E-02
    0.808260E-01    0.536847E-02    0.160000E-02
    0.818876E-01    0.536847E-02    0.160000E-02
    0.829598E-01    0.536847E-02    0.160000E-02
    0.840427E-01    0.536847E-02    0.160000E-02
    0.851365E-01    0.536847E-02    0.160000E-02
    0.862412E-01    0.536847E-02    0.160000E-02
    0.873569E-01    0.536847E-02    0.160000E-02
    0.766837E-01    0.555000E-02    0.160000E-02
    0.777039E-01    0.555000E-02    0.160000E-02
    0.787343E-01    0.555000E-02    0.160000E-02
    0.797749E-01    0.555000E-02    0.160000E-02
    0.808260E-01    0.555000E-02    0.160000E-02
    0.818876E-01    0.555000E-02    0.160000E-02
    0.829598E-01    0.555000E-02    0.160000E-02
    0.840427E-01    0.555000E-02    0.160000E-02
    0.851365E-01    0.555000E-02    0.160000E-02
    0.862412E-01    0.555000E-02    0.160000E-02
    0.873569E-01    0.555000E-02    0.160000E-02
    0.766837E-01    0.572725E-02    0.160000E-02
    0.777039E-01    0.572725E-02    0.160000E-02
    0.787343E-01    0.572725E-02    0.160000E-02
    0.797749E-01    0.572725E-02    0.160000E-02
    0.808260E-01    0.572725E-02    0.160000E-02
    0.818876E-01    0.572725E-02    0.160000E-02
    0.829598E-01    0.572725E-02    0.160000E-02
    0.840427E-01    0.572725E-02    0.160000E-02
    0.851365E-01    0.572725E-02    0.160000E-02
    0.862412E-01    0.572725E-02    0.160000E-02
    0.873569E-01    0.572725E-02    0.160000E-02
    0.766837E-01    0.590981E-02    0.160000E-02
    0.777039E-01    0.590981E-02    0.160000E-02
    0.787343E-01    0.590981E-02    0.160000E-02
    0.797749E-01    0.590981E-02    0.160000E-02
    0.808260E-01    0.590981E-02    0.160000E-02
    0.818876E-01    0.590981E-02    0.160000E-02
    0.829598E-01    0.590981E-02    0.160000E-02
    0.840427E-01    0.590981E-02    0.160000E-02
    0.851365E-01    0.590981E-02    0.160000E-02
    0.862412E-01    0.590981E-02    0.160000E-02
    0.873569E-01    0.590981E-02    0.160000E-02
    0.766837E-01    0.609785E-02    0.160000E-02
    0.777039E-01    0.609785E-02    0.160000E-02
    0.787343E-01    0.609785E-02    0.160000E-02
    0.797749E-01    0.609785E-02    0.160000E-02
    0.808260E-01    0.609785E-02    0.160000E-02
    0.818876E-01    0.609785E-02    0.160000E-02
    0.829598E-01    0.609785E-02    0.160000E-02
    0.840427E-01    0.609785E-02    0.160000E-02
    0.851365E-01    0.609785E-02    0.160000E-02
    0.862412E-01    0.609785E-02    0.160000E-02
    0.873569E-01    0.609785E-02    0.160000E-02
    0.766837E-01    0.629154E-02    0.160000E-02
    0.777039E-01    0.629154E-02    0.160000E-02
    0.787343E-01    0.629154E-02    0.160000E-02
    0.797749E-01    0.629154E-02    0.160000E-02
    0.808260E-01    0.629154E-02    0.160000E-02
    0.818876E-01    0.629154E-02    0.160000E-02
    0.829598E-01    0.629154E-02    0.160000E-02
    0.840427E-01    0.629154E-02    0.160000E-02
    0.851365E-01    0.629154E-02    0.160000E-02
    0.862412E-01    0.629154E-02    0.160000E-02
    0.873569E-01    0.629154E-02    0.160000E-02
    0.766837E-01    0.649103E-02    0.160000E-02
    0.777039E-01    0.649103E-02    0.160000E-02
    0.787343E-01    0.649103E-02    0.160000E-02
    0.797749E-01    0.649103E-02    0.160000E-02
    0.808260E-01    0.649103E-02    0.160000E-02
    0.818876E-01    0.649103E-02    0.160000E-02
    0.829598E-01    0.649103E-02    0.160000E-02
    0.840427E-01    0.649103E-02    0.160000E-02
    0.851365E-01    0.649103E-02    0.160000E-02
    0.862412E-01    0.649103E-02    0.160000E-02
    0.873569E-01    0.649103E-02    0.160000E-02
    0.766837E-01    0.669651E-02    0.160000E-02
    0.777039E-01    0.669651E-02    0.160000E-02
    0.787343E-01    0.669651E-02    0.160000E-02
    0.797749E-01    0.669651E-02    0.160000E-02
    0.808260E-01    0.669651E-02    0.160000E-02
    0.818876E-01    0.669651E-02    0.160000E-02
    0.829598E-01    0.669651E-02    0.160000E-02
    0.840427E-01    0.669651E-02    0.160000E-02
    0.851365E-01    0.669651E-02    0.160000E-02
    0.862412E-01    0.669651E-02    0.160000E-02
    0.873569E-01    0.669651E-02    0.160000E-02
</DataArray>
</Points>
<PointData>
<DataArray Name="Velocity" type="Float64" format="ascii" NumberOfComponents="3">
    0.883772E-01   -0.514452E-05    0.000000E+00
    0.883793E-01   -0.482011E-05    0.000000E+00
    0.883812E-01   -0.447150E-05    0.000000E+00
    0.883830E-01   -0.414564E-05    0.000000E+00
    0.883847E-01   -0.384106E-05    0.000000E+00
    0.883863E-01   -0.355639E-05    0.000000E+00
    0.883878E-01   -0.329038E-05    0.000000E+00
    0.883891E-01   -0.304194E-05    0.000000E+00
    0.883904E-01   -0.281012E-05    0.000000E+00
    0.883916E-01   -0.259407E-05    0.000000E+00
    0.883928E-01   -0.239315E-05    0.000000E+00
    0.883773E-01   -0.534488E-05    0.000000E+00
    0.883794E-01   -0.500844E-05    0.000000E+00
    0.883813E-01   -0.464761E-05    0.000000E+00
    0.883831E-01   -0.431075E-05    0.000000E+00
    0.883848E-01   -0.399595E-05    0.000000E+00
    0.883863E-01   -0.370144E-05    0.000000E+00
    0.883878E-01   -0.342564E-05    0.000000E+00
    0.883892E-01   -0.316724E-05    0.000000E+00
    0.883905E-01   -0.292533E-05    0.000000E+00
    0.883917E-01   -0.269949E-05    0.000000E+00
    0.883928E-01   -0.248971E-05    0.000000E+00
    0.883774E-01   -0.553521E-05    0.000000E+00
    0.883794E-01   -0.518664E-05    0.000000E+00
    0.883813E-01   -0.481264E-05    0.000000E+00
    0.883831E-01   -0.446340E-05    0.000000E+00
    0.883848E-01   -0.413701E-05    0.000000E+00
    0.883864E-01   -0.383175E-05    0.000000E+00
    0.883879E-01   -0.354604E-05    0.000000E+00
    0.883892E-01   -0.327856E-05    0.000000E+00
    0.883905E-01   -0.302837E-05    0.000000E+00
    0.883917E-01   -0.279493E-05    0.000000E+00
    0.883928E-01   -0.257798E-05    0.000000E+00
    0.883774E-01   -0.572123E-05    0.000000E+00
    0.883795E-01   -0.536083E-05    0.000000E+00
    0.883814E-01   -0.497400E-05    0.000000E+00
    0.883832E-01   -0.461268E-05    0.000000E+00
    0.883849E-01   -0.427500E-05    0.000000E+00
    0.883864E-01   -0.395925E-05    0.000000E+00
    0.883879E-01   -0.366385E-05    0.000000E+00
    0.883893E-01   -0.338751E-05    0.000000E+00
    0.883905E-01   -0.312919E-05    0.000000E+00
    0.883917E-01   -0.288826E-05    0.000000E+00
    0.883929E-01   -0.266427E-05    0.000000E+00
    0.883775E-01   -0.590288E-05    0.000000E+00
    0.883795E-01   -0.553095E-05    0.000000E+00
    0.883815E-01   -0.513161E-05    0.000000E+00
    0.883833E-01   -0.475852E-05    0.000000E+00
    0.883849E-01   -0.440985E-05    0.000000E+00
    0.883865E-01   -0.408386E-05    0.000000E+00
    0.883880E-01   -0.377902E-05    0.000000E+00
    0.883893E-01   -0.349400E-05    0.000000E+00
    0.883906E-01   -0.322773E-05    0.000000E+00
    0.883918E-01   -0.297945E-05    0.000000E+00
    0.883929E-01   -0.274856E-05    0.000000E+00
    0.883776E-01   -0.607951E-05    0.000000E+00
    0.883796E-01   -0.569638E-05    0.000000E+00
    0.883815E-01   -0.528490E-05    0.000000E+00
    0.883833E-01   -0.490039E-05    0.000000E+00
    0.883850E-01   -0.454103E-05    0.000000E+00
    0.883865E-01   -0.420511E-05    0.000000E+00
    0.883880E-01   -0.389109E-05    0.000000E+00
    0.883894E-01   -0.359762E-05    0.000000E+00
    0.883906E-01   -0.332360E-05    0.000000E+00
    0.883918E-01   -0.306816E-05    0.000000E+00
    0.883929E-01   -0.283054E-05    0.000000E+00
    0.883777E-01   -0.626055E-05    0.000000E+00
    0.883797E-01   -0.586594E-05    0.000000E+00
    0.883816E-01   -0.544203E-05    0.000000E+00
    0.883834E-01   -0.504584E-05    0.000000E+00
    0.883851E-01   -0.467554E-05    0.000000E+00
    0.883866E-01   -0.432945E-05    0.000000E+00
    0.883881E-01   -0.400602E-05    0.000000E+00
    0.883894E-01   -0.370390E-05    0.000000E+00
    0.883907E-01   -0.342193E-05    0.000000E+00
    0.883919E-01   -0.315912E-05    0.000000E+00
    0.883930E-01   -0.291460E-05    0.000000E+00
    0.883778E-01   -0.644596E-05    0.000000E+00
    0.883798E-01   -0.603962E-05    0.000000E+00
    0.883817E-01   -0.560299E-05    0.000000E+00
    0.883835E-01   -0.519483E-05    0.000000E+00
    0.883851E-01   -0.481335E-05    0.000000E+00
    0.883867E-01   -0.445685E-05    0.000000E+00
    0.883881E-01   -0.412379E-05    0.000000E+00
    0.883895E-01   -0.381280E-05    0.000000E+00
    0.883907E-01   -0.352267E-05    0.000000E+00
    0.883919E-01   -0.325231E-05    0.000000E+00
    0.883930E-01   -0.300071E-05    0.000000E+00
    0.883779E-01   -0.663569E-05    0.000000E+00
    0.883799E-01   -0.621734E-05    0.000000E+00
    0.883818E-01   -0.576771E-05    0.000000E+00
    0.883836E-01   -0.534733E-05    0.000000E+00
    0.883852E-01   -0.495442E-05    0.000000E+00
    0.883868E-01   -0.458727E-05    0.000000E+00
    0.883882E-01   -0.424436E-05    0.000000E+00
    0.883896E-01   -0.392429E-05    0.000000E+00
    0.883908E-01   -0.362581E-05    0.000000E+00
    0.883920E-01   -0.334772E-05    0.000000E+00
    0.883931E-01   -0.308887E-05    0.000000E+00
    0.883781E-01   -0.682965E-05    0.000000E+00
    0.883801E-01   -0.639904E-05    0.000000E+00
    0.883819E-01   -0.593614E-05    0.000000E+00
    0.883837E-01   -0.550327E-05    0.000000E+00
    0.883853E-01   -0.509868E-05    0.000000E+00
    0.883869E-01   -0.472066E-05    0.000000E+00
    0.883883E-01   -0.436768E-05    0.000000E+00
    0.883896E-01   -0.403833E-05    0.000000E+00
    0.883909E-01   -0.373130E-05    0.000000E+00
    0.883921E-01   -0.344530E-05    0.000000E+00
    0.883931E-01   -0.317903E-05    0.000000E+00
    0.883782E-01   -0.703111E-05    0.000000E+00
    0.883802E-01   -0.658813E-05    0.000000E+00
    0.883821E-01   -0.611237E-05    0.000000E+00
    0.883838E-01   -0.566788E-05    0.000000E+00
    0.883854E-01   -0.525255E-05    0.000000E+00
    0.883870E-01   -0.486441E-05    0.000000E+00
    0.883884E-01   -0.450165E-05    0.000000E+00
    0.883897E-01   -0.416269E-05    0.000000E+00
    0.883910E-01   -0.384621E-05    0.000000E+00
    0.883921E-01   -0.355117E-05    0.000000E+00
    0.883932E-01   -0.327679E-05    0.000000E+00
    0.883772E-01   -0.519291E-05    0.127190E-20
    0.883793E-01   -0.482011E-05    0.118059E-20
    0.883812E-01   -0.447150E-05    0.109520E-20
    0.883830E-01   -0.414564E-05    0.101539E-20
    0.883847E-01   -0.384106E-05    0.940789E-21
    0.883863E-01   -0.355639E-05    0.871064E-21
    0.883878E-01   -0.329038E-05    0.805910E-21
    0.883891E-01   -0.304194E-05    0.745060E-21
    0.883904E-01   -0.281012E-05    0.688281E-21
    0.883916E-01   -0.259407E-05    0.635363E-21
    0.883928E-01   -0.239315E-05    0.586154E-21
    0.883773E-01   -0.539513E-05    0.132143E-20
    0.883794E-01   -0.500844E-05    0.122671E-20
    0.883813E-01   -0.464761E-05    0.113834E-20
    0.883831E-01   -0.431075E-05    0.105583E-20
    0.883848E-01   -0.399595E-05    0.978726E-21
    0.883863E-01   -0.370144E-05    0.906592E-21
    0.883878E-01   -0.342564E-05    0.839041E-21
    0.883892E-01   -0.316724E-05    0.775750E-21
    0.883905E-01   -0.292533E-05    0.716498E-21
    0.883917E-01   -0.269949E-05    0.661185E-21
    0.883928E-01   -0.248971E-05    0.609803E-21
    0.883774E-01   -0.558726E-05    0.136848E-20
    0.883794E-01   -0.518664E-05    0.127036E-20
    0.883813E-01   -0.481264E-05    0.117876E-20
    0.883831E-01   -0.446340E-05    0.109322E-20
    0.883848E-01   -0.413701E-05    0.101328E-20
    0.883864E-01   -0.383175E-05    0.938507E-21
    0.883879E-01   -0.354604E-05    0.868529E-21
    0.883892E-01   -0.327856E-05    0.803017E-21
    0.883905E-01   -0.302837E-05    0.741737E-21
    0.883917E-01   -0.279493E-05    0.684560E-21
    0.883928E-01   -0.257798E-05    0.631422E-21
    0.883774E-01   -0.577502E-05    0.141447E-20
    0.883795E-01   -0.536083E-05    0.131302E-20
    0.883814E-01   -0.497400E-05    0.121828E-20
    0.883832E-01   -0.461268E-05    0.112978E-20
    0.883849E-01   -0.427500E-05    0.104707E-20
    0.883864E-01   -0.395925E-05    0.969735E-21
    0.883879E-01   -0.366385E-05    0.897386E-21
    0.883893E-01   -0.338751E-05    0.829700E-21
    0.883905E-01   -0.312919E-05    0.766431E-21
    0.883917E-01   -0.288826E-05    0.707419E-21
    0.883929E-01   -0.266427E-05    0.652557E-21
    0.883775E-01   -0.595838E-05    0.145938E-20
    0.883795E-01   -0.553095E-05    0.135469E-20
    0.883815E-01   -0.513161E-05    0.125688E-20
    0.883833E-01   -0.475852E-05    0.116550E-20
    0.883849E-01   -0.440985E-05    0.108010E-20
    0.883865E-01   -0.408386E-05    0.100026E-20
    0.883880E-01   -0.377902E-05    0.925593E-21
    0.883893E-01   -0.349400E-05    0.855783E-21
    0.883906E-01   -0.322773E-05    0.790566E-21
    0.883918E-01   -0.297945E-05    0.729754E-21
    0.883929E-01   -0.274856E-05    0.673202E-21
    0.883776E-01   -0.613667E-05    0.150305E-20
    0.883796E-01   -0.569638E-05    0.139521E-20
    0.883815E-01   -0.528490E-05    0.129443E-20
    0.883833E-01   -0.490039E-05    0.120025E-20
    0.883850E-01   -0.454103E-05    0.111223E-20
    0.883865E-01   -0.420511E-05    0.102995E-20
    0.883880E-01   -0.389109E-05    0.953042E-21
    0.883894E-01   -0.359762E-05    0.881164E-21
    0.883906E-01   -0.332360E-05    0.814048E-21
    0.883918E-01   -0.306816E-05    0.751481E-21
    0.883929E-01   -0.283054E-05    0.693282E-21
    0.883777E-01   -0.631942E-05    0.154781E-20
    0.883797E-01   -0.586594E-05    0.143674E-20
    0.883816E-01   -0.544203E-05    0.133291E-20
    0.883834E-01   -0.504584E-05    0.123587E-20
    0.883851E-01   -0.467554E-05    0.114518E-20
    0.883866E-01   -0.432945E-05    0.106041E-20
    0.883881E-01   -0.400602E-05    0.981191E-21
    0.883894E-01   -0.370390E-05    0.907193E-21
    0.883907E-01   -0.342193E-05    0.838130E-21
    0.883919E-01   -0.315912E-05    0.773760E-21
    0.883930E-01   -0.291460E-05    0.713870E-21
    0.883778E-01   -0.650658E-05    0.159365E-20
    0.883798E-01   -0.603962E-05    0.147928E-20
    0.883817E-01   -0.560299E-05    0.137234E-20
    0.883835E-01   -0.519483E-05    0.127237E-20
    0.883851E-01   -0.481335E-05    0.117893E-20
    0.883867E-01   -0.445685E-05    0.109161E-20
    0.883881E-01   -0.412379E-05    0.101004E-20
    0.883895E-01   -0.381280E-05    0.933867E-21
    0.883907E-01   -0.352267E-05    0.862806E-21
    0.883919E-01   -0.325231E-05    0.796587E-21
    0.883930E-01   -0.300071E-05    0.734963E-21
    0.883779E-01   -0.669809E-05    0.164056E-20
    0.883799E-01   -0.621734E-05    0.152281E-20
    0.883818E-01   -0.576771E-05    0.141268E-20
    0.883836E-01   -0.534733E-05    0.130972E-20
    0.883852E-01   -0.495442E-05    0.121348E-20
    0.883868E-01   -0.458727E-05    0.112356E-20
    0.883882E-01   -0.424436E-05    0.103957E-20
    0.883896E-01   -0.392429E-05    0.961174E-21
    0.883908E-01   -0.362581E-05    0.888068E-21
    0.883920E-01   -0.334772E-05    0.819955E-21
    0.883931E-01   -0.308887E-05    0.756554E-21
    0.883781E-01   -0.689387E-05    0.168851E-20
    0.883801E-01   -0.639904E-05    0.156731E-20
    0.883819E-01   -0.593614E-05    0.145393E-20
    0.883837E-01   -0.550327E-05    0.134791E-20
    0.883853E-01   -0.509868E-05    0.124882E-20
    0.883869E-01   -0.472066E-05    0.115623E-20
    0.883883E-01   -0.436768E-05    0.106977E-20
    0.883896E-01   -0.403833E-05    0.989105E-21
    0.883909E-01   -0.373130E-05    0.913906E-21
    0.883921E-01   -0.344530E-05    0.843855E-21
    0.883931E-01   -0.317903E-05    0.778637E-21
    0.883782E-01   -0.709720E-05    0.173831E-20
    0.883802E-01   -0.658813E-05    0.161363E-20
    0.883821E-01   -0.611237E-05    0.149710E-20
    0.883838E-01   -0.566788E-05    0.138823E-20
    0.883854E-01   -0.525255E-05    0.128650E-20
    0.883870E-01   -0.486441E-05    0.119144E-20
    0.883884E-01   -0.450165E-05    0.110259E-20
    0.883897E-01   -0.416269E-05    0.101956E-20
    0.883910E-01   -0.384621E-05    0.942051E-21
    0.883921E-01   -0.355117E-05    0.869786E-21
    0.883932E-01   -0.327679E-05    0.802583E-21
</DataArray>
</PointData>
<CellData>
<DataArray Name="DP" type="Float64" format="ascii" NumberOfComponents="1">
      0.000000E+0000
      0.000000E+0000
      0.000000E+0000
      0.000000E+0000
      0.000000E+0000
      0.000000E+0000
      0.000000E+0000
      0.000000E+0000
      0.000000E+0000
      0.000000E+0000
      0.000000E+0000
      0.000000E+0000
      0.000000E+0000
      0.000000E+0000
      0.000000E+0000
      0.000000E+0000
      0.000000E+0000
      0.000000E+0000
      0.000000E+0000
      0.000000E+0000
      0.000000E+0000
      0.000000E+0000
      0.000000E+0000
      0.000000E+0000
      0.000000E+0000
      0.000000E+0000
      0.000000E+0000
      0.000000E+0000
      0.000000E+0000
      0.000000E+0000
      0.000000E+0000
      0.000000E+0000
      0.000000E+0000
      0.000000E+0000
      0.000000E+0000
      0.000000E+0000
      0.000000E+0000
      0.000000E+0000
      0.000000E+0000
      0.000000E+0000
      0.000000E+0000
      0.000000E+0000
      0.000000E+0000
      0.000000E+0000
      0.000000E+0000
      0.000000E+0000
      0.000000E+0000
      0.000000E+0000
      0.000000E+0000
      0.000000E+0000
      0.000000E+0000
      0.000000E+0000
      0.000000E+0000
      0.000000E+0000
      0.000000E+0000
      0.000000E+0000
      0.000000E+0000
      0.000000E+0000
      0.000000E+0000
      0.000000E+0000
      0.000000E+0000
      0.000000E+0000
      0.000000E+0000
      0.000000E+0000
      0.000000E+0000
      0.000000E+0000
      0.000000E+0000
      0.000000E+0000
      0.000000E+0000
      0.000000E+0000
      0.000000E+0000
      0.000000E+0000
      0.000000E+0000
      0.000000E+0000
      0.000000E+0000
      0.000000E+0000
      0.000000E+0000
      0.000000E+0000
      0.000000E+0000
      0.000000E+0000
      0.000000E+0000
      0.000000E+0000
      0.000000E+0000
      0.000000E+0000
      0.000000E+0000
      0.000000E+0000
      0.000000E+0000
      0.000000E+0000
      0.000000E+0000
      0.000000E+0000
      0.000000E+0000
      0.000000E+0000
      0.000000E+0000
      0.000000E+0000
      0.000000E+0000
      0.000000E+0000
      0.000000E+0000
      0.000000E+0000
      0.000000E+0000
      0.000000E+0000
</DataArray>
<DataArray Name="P" type="Float64" format="ascii" NumberOfComponents="1">
     -0.254363E+0000
     -0.266150E+0000
     -0.278056E+0000
     -0.290081E+0000
     -0.302226E+0000
     -0.314492E+0000
     -0.326881E+0000
     -0.339394E+0000
     -0.352031E+0000
     -0.364795E+0000
     -0.254363E+0000
     -0.266150E+0000
     -0.278056E+0000
     -0.290081E+0000
     -0.302226E+0000
     -0.314492E+0000
     -0.326881E+0000
     -0.339394E+0000
     -0.352031E+0000
     -0.364795E+0000
     -0.254363E+0000
     -0.266151E+0000
     -0.278056E+0000
     -0.290081E+0000
     -0.302226E+0000
     -0.314492E+0000
     -0.326881E+0000
     -0.339394E+0000
     -0.352031E+0000
     -0.364795E+0000
     -0.254363E+0000
     -0.266151E+0000
     -0.278056E+0000
     -0.290081E+0000
     -0.302226E+0000
     -0.314492E+0000
     -0.326881E+0000
     -0.339394E+0000
     -0.352031E+0000
     -0.364795E+0000
     -0.254363E+0000
     -0.266151E+0000
     -0.278056E+0000
     -0.290081E+0000
     -0.302226E+0000
     -0.314492E+0000
     -0.326881E+0000
     -0.339394E+0000
     -0.352031E+0000
     -0.364795E+0000
     -0.254363E+0000
     -0.266151E+0000
     -0.278056E+0000
     -0.290081E+0000
     -0.302226E+0000
     -0.314492E+0000
     -0.326881E+0000
     -0.339394E+0000
     -0.352031E+0000
     -0.364795E+0000
     -0.254363E+0000
     -0.266151E+0000
     -0.278056E+0000
     -0.290081E+0000
     -0.302226E+0000
     -0.314492E+0000
     -0.326881E+0000
     -0.339394E+0000
     -0.352031E+0000
     -0.364795E+0000
     -0.254363E+0000
     -0.266151E+0000
     -0.278056E+0000
     -0.290081E+0000
     -0.302226E+0000
     -0.314492E+0000
     -0.326881E+0000
     -0.339394E+0000
     -0.352031E+0000
     -0.364795E+0000
     -0.254363E+0000
     -0.266151E+0000
     -0.278056E+0000
     -0.290081E+0000
     -0.302226E+0000
     -0.314492E+0000
     -0.326881E+0000
     -0.339394E+0000
     -0.352031E+0000
     -0.364795E+0000
     -0.254363E+0000
     -0.266151E+0000
     -0.278056E+0000
     -0.290081E+0000
     -0.302226E+0000
     -0.314492E+0000
     -0.326881E+0000
     -0.339394E+0000
     -0.352031E+0000
     -0.364795E+0000
</DataArray>
<DataArray Name="RHO" type="Float64" format="ascii" NumberOfComponents="1">
      0.117197E+0001
      0.117197E+0001
      0.117197E+0001
      0.117197E+0001
      0.117197E+0001
      0.117197E+0001
      0.117197E+0001
      0.117197E+0001
      0.117197E+0001
      0.117197E+0001
      0.117197E+0001
      0.117197E+0001
      0.117197E+0001
      0.117197E+0001
      0.117197E+0001
      0.117197E+0001
      0.117197E+0001
      0.117197E+0001
      0.117197E+0001
      0.117197E+0001
      0.117197E+0001
      0.117197E+0001
      0.117197E+0001
      0.117197E+0001
      0.117197E+0001
      0.117197E+0001
      0.117197E+0001
      0.117197E+0001
      0.117197E+0001
      0.117197E+0001
      0.117197E+0001
      0.117197E+0001
      0.117197E+0001
      0.117197E+0001
      0.117197E+0001
      0.117197E+0001
      0.117197E+0001
      0.117197E+0001
      0.117197E+0001
      0.117197E+0001
      0.117197E+0001
      0.117197E+0001
      0.117197E+0001
      0.117197E+0001
      0.117197E+0001
      0.117197E+0001
      0.117197E+0001
      0.117197E+0001
      0.117197E+0001
      0.117197E+0001
      0.117197E+0001
      0.117197E+0001
      0.117197E+0001
      0.117197E+0001
      0.117197E+0001
      0.117197E+0001
      0.117197E+0001
      0.117197E+0001
      0.117197E+0001
      0.117197E+0001
      0.117197E+0001
      0.117197E+0001