<?xml version="1.0"?>
<VTKFile type="StructuredGrid" version="0.1" byte_order="LittleEndian">
<StructuredGrid WholeExtent="         160         170          50          60           0           1">
<Piece Extent="         160         170          50          60           0           1">
<Points>
<DataArray NumberOfComponents="3" type="Float64" format="ascii">
    0.991467E-01    0.123834E-01    0.000000E+00
    0.100391E+00    0.123834E-01    0.000000E+00
    0.101649E+00    0.123834E-01    0.000000E+00
    0.102919E+00    0.123834E-01    0.000000E+00
    0.104201E+00    0.123834E-01    0.000000E+00
    0.105496E+00    0.123834E-01    0.000000E+00
    0.106805E+00    0.123834E-01    0.000000E+00
    0.108126E+00    0.123834E-01    0.000000E+00
    0.109461E+00    0.123834E-01    0.000000E+00
    0.110809E+00    0.123834E-01    0.000000E+00
    0.112170E+00    0.123834E-01    0.000000E+00
    0.991467E-01    0.127657E-01    0.000000E+00
    0.100391E+00    0.127657E-01    0.000000E+00
    0.101649E+00    0.127657E-01    0.000000E+00
    0.102919E+00    0.127657E-01    0.000000E+00
    0.104201E+00    0.127657E-01    0.000000E+00
    0.105496E+00    0.127657E-01    0.000000E+00
    0.106805E+00    0.127657E-01    0.000000E+00
    0.108126E+00    0.127657E-01    0.000000E+00
    0.109461E+00    0.127657E-01    0.000000E+00
    0.110809E+00    0.127657E-01    0.000000E+00
    0.112170E+00    0.127657E-01    0.000000E+00
    0.991467E-01    0.131594E-01    0.000000E+00
    0.100391E+00    0.131594E-01    0.000000E+00
    0.101649E+00    0.131594E-01    0.000000E+00
    0.102919E+00    0.131594E-01    0.000000E+00
    0.104201E+00    0.131594E-01    0.000000E+00
    0.105496E+00    0.131594E-01    0.000000E+00
    0.106805E+00    0.131594E-01    0.000000E+00
    0.108126E+00    0.131594E-01    0.000000E+00
    0.109461E+00    0.131594E-01    0.000000E+00
    0.110809E+00    0.131594E-01    0.000000E+00
    0.112170E+00    0.131594E-01    0.000000E+00
    0.991467E-01    0.135649E-01    0.000000E+00
    0.100391E+00    0.135649E-01    0.000000E+00
    0.101649E+00    0.135649E-01    0.000000E+00
    0.102919E+00    0.135649E-01    0.000000E+00
    0.104201E+00    0.135649E-01    0.000000E+00
    0.105496E+00    0.135649E-01    0.000000E+00
    0.106805E+00    0.135649E-01    0.000000E+00
    0.108126E+00    0.135649E-01    0.000000E+00
    0.109461E+00    0.135649E-01    0.000000E+00
    0.110809E+00    0.135649E-01    0.000000E+00
    0.112170E+00    0.135649E-01    0.000000E+00
    0.991467E-01    0.139826E-01    0.000000E+00
    0.100391E+00    0.139826E-01    0.000000E+00
    0.101649E+00    0.139826E-01    0.000000E+00
    0.102919E+00    0.139826E-01    0.000000E+00
    0.104201E+00    0.139826E-01    0.000000E+00
    0.105496E+00    0.139826E-01    0.000000E+00
    0.106805E+00    0.139826E-01    0.000000E+00
    0.108126E+00    0.139826E-01    0.000000E+00
    0.109461E+00    0.139826E-01    0.000000E+00
    0.110809E+00    0.139826E-01    0.000000E+00
    0.112170E+00    0.139826E-01    0.000000E+00
    0.991467E-01    0.144128E-01    0.000000E+00
    0.100391E+00    0.144128E-01    0.000000E+00
    0.101649E+00    0.144128E-01    0.000000E+00
    0.102919E+00    0.144128E-01    0.000000E+00
    0.104201E+00    0.144128E-01    0.000000E+00
    0.105496E+00    0.144128E-01    0.000000E+00
    0.106805E+00    0.144128E-01    0.000000E+00
    0.108126E+00    0.144128E-01    0.000000E+00
    0.109461E+00    0.144128E-01    0.000000E+00
    0.110809E+00    0.144128E-01    0.000000E+00
    0.112170E+00    0.144128E-01    0.000000E+00
    0.991467E-01    0.148560E-01    0.000000E+00
    0.100391E+00    0.148560E-01    0.000000E+00
    0.101649E+00    0.148560E-01    0.000000E+00
    0.102919E+00    0.148560E-01    0.000000E+00
    0.104201E+00    0.148560E-01    0.000000E+00
    0.105496E+00    0.148560E-01    0.000000E+00
    0.106805E+00    0.148560E-01    0.000000E+00
    0.108126E+00    0.148560E-01    0.000000E+00
    0.109461E+00    0.148560E-01    0.000000E+00
    0.110809E+00    0.148560E-01    0.000000E+00
    0.112170E+00    0.148560E-01    0.000000E+00
    0.991467E-01    0.153124E-01    0.000000E+00
    0.100391E+00    0.153124E-01    0.000000E+00
    0.101649E+00    0.153124E-01    0.000000E+00
    0.102919E+00    0.153124E-01    0.000000E+00
    0.104201E+00    0.153124E-01    0.000000E+00
    0.105496E+00    0.153124E-01    0.000000E+00
    0.106805E+00    0.153124E-01    0.000000E+00
    0.108126E+00    0.153124E-01    0.000000E+00
    0.109461E+00    0.153124E-01    0.000000E+00
    0.110809E+00    0.153124E-01    0.000000E+00
    0.112170E+00    0.153124E-01    0.000000E+00
    0.991467E-01    0.157825E-01    0.000000E+00
    0.100391E+00    0.157825E-01    0.000000E+00
    0.101649E+00    0.157825E-01    0.000000E+00
    0.102919E+00    0.157825E-01    0.000000E+00
    0.104201E+00    0.157825E-01    0.000000E+00
    0.105496E+00    0.157825E-01    0.000000E+00
    0.106805E+00    0.157825E-01    0.000000E+00
    0.108126E+00    0.157825E-01    0.000000E+00
    0.109461E+00    0.157825E-01    0.000000E+00
    0.110809E+00    0.157825E-01    0.000000E+00
    0.112170E+00    0.157825E-01    0.000000E+00
    0.991467E-01    0.162667E-01    0.000000E+00
    0.100391E+00    0.162667E-01    0.000000E+00
    0.101649E+00    0.162667E-01    0.000000E+00
    0.102919E+00    0.162667E-01    0.000000E+00
    0.104201E+00    0.162667E-01    0.000000E+00
    0.105496E+00    0.162667E-01    0.000000E+00
    0.106805E+00    0.162667E-01    0.000000E+00
    0.108126E+00    0.162667E-01    0.000000E+00
    0.109461E+00    0.162667E-01    0.000000E+00
    0.110809E+00    0.162667E-01    0.000000E+00
    0.112170E+00    0.162667E-01    0.000000E+00
    0.991467E-01    0.167655E-01    0.000000E+00
    0.100391E+00    0.167655E-01    0.000000E+00
    0.101649E+00    0.167655E-01    0.000000E+00
    0.102919E+00    0.167655E-01    0.000000E+00
    0.104201E+00    0.167655E-01    0.000000E+00
    0.105496E+00    0.167655E-01    0.000000E+00
    0.106805E+00    0.167655E-01    0.000000E+00
    0.108126E+00    0.167655E-01    0.000000E+00
    0.109461E+00    0.167655E-01    0.000000E+00
    0.110809E+00    0.167655E-01    0.000000E+00
    0.112170E+00    0.167655E-01    0.000000E+00
    0.991467E-01    0.123834E-01    0.160000E-02
    0.100391E+00    0.123834E-01    0.160000E-02
    0.101649E+00    0.123834E-01    0.160000E-02
    0.102919E+00    0.123834E-01    0.160000E-02
    0.104201E+00    0.123834E-01    0.160000E-02
    0.105496E+00    0.123834E-01    0.160000E-02
    0.106805E+00    0.123834E-01    0.160000E-02
    0.108126E+00    0.123834E-01    0.160000E-02
    0.109461E+00    0.123834E-01    0.160000E-02
    0.110809E+00    0.123834E-01    0.160000E-02
    0.112170E+00    0.123834E-01    0.160000E-02
    0.991467E-01    0.127657E-01    0.160000E-02
    0.100391E+00    0.127657E-01    0.160000E-02
    0.101649E+00    0.127657E-01    0.160000E-02
    0.102919E+00    0.127657E-01    0.160000E-02
    0.104201E+00    0.127657E-01    0.160000E-02
    0.105496E+00    0.127657E-01    0.160000E-02
    0.106805E+00    0.127657E-01    0.160000E-02
    0.108126E+00    0.127657E-01    0.160000E-02
    0.109461E+00    0.127657E-01    0.160000E-02
    0.110809E+00    0.127657E-01    0.160000E-02
    0.112170E+00    0.127657E-01    0.160000E-02
    0.991467E-01    0.131594E-01    0.160000E-02
    0.100391E+00    0.131594E-01    0.160000E-02
    0.101649E+00    0.131594E-01    0.160000E-02
    0.102919E+00    0.131594E-01    0.160000E-02
    0.104201E+00    0.131594E-01    0.160000E-02
    0.105496E+00    0.131594E-01    0.160000E-02
    0.106805E+00    0.131594E-01    0.160000E-02
    0.108126E+00    0.131594E-01    0.160000E-02
    0.109461E+00    0.131594E-01    0.160000E-02
    0.110809E+00    0.131594E-01    0.160000E-02
    0.112170E+00    0.131594E-01    0.160000E-02
    0.991467E-01    0.135649E-01    0.160000E-02
    0.100391E+00    0.135649E-01    0.160000E-02
    0.101649E+00    0.135649E-01    0.160000E-02
    0.102919E+00    0.135649E-01    0.160000E-02
    0.104201E+00    0.135649E-01    0.160000E-02
    0.105496E+00    0.135649E-01    0.160000E-02
    0.106805E+00    0.135649E-01    0.160000E-02
    0.108126E+00    0.135649E-01    0.160000E-02
    0.109461E+00    0.135649E-01    0.160000E-02
    0.110809E+00    0.135649E-01    0.160000E-02
    0.112170E+00    0.135649E-01    0.160000E-02
    0.991467E-01    0.139826E-01    0.160000E-02
    0.100391E+00    0.139826E-01    0.160000E-02
    0.101649E+00    0.139826E-01    0.160000E-02
    0.102919E+00    0.139826E-01    0.160000E-02
    0.104201E+00    0.139826E-01    0.160000E-02
    0.105496E+00    0.139826E-01    0.160000E-02
    0.106805E+00    0.139826E-01    0.160000E-02
    0.108126E+00    0.139826E-01    0.160000E-02
    0.109461E+00    0.139826E-01    0.160000E-02
    0.110809E+00    0.139826E-01    0.160000E-02
    0.112170E+00    0.139826E-01    0.160000E-02
    0.991467E-01    0.144128E-01    0.160000E-02
    0.100391E+00    0.144128E-01    0.160000E-02
    0.101649E+00    0.144128E-01    0.160000E-02
    0.102919E+00    0.144128E-01    0.160000E-02
    0.104201E+00    0.144128E-01    0.160000E-02
    0.105496E+00    0.144128E-01    0.160000E-02
    0.106805E+00    0.144128E-01    0.160000E-02
    0.108126E+00    0.144128E-01    0.160000E-02
    0.109461E+00    0.144128E-01    0.160000E-02
    0.110809E+00    0.144128E-01    0.160000E-02
    0.112170E+00    0.144128E-01    0.160000E-02
    0.991467E-01    0.148560E-01    0.160000E-02
    0.100391E+00    0.148560E-01    0.160000E-02
    0.101649E+00    0.148560E-01    0.160000E-02
    0.102919E+00    0.148560E-01    0.160000E-02
    0.104201E+00    0.148560E-01    0.160000E-02
    0.105496E+00    0.148560E-01    0.160000E-02
    0.106805E+00    0.148560E-01    0.160000E-02
    0.108126E+00    0.148560E-01    0.160000E-02
    0.109461E+00    0.148560E-01    0.160000E-02
    0.110809E+00    0.148560E-01    0.160000E-02
    0.112170E+00    0.148560E-01    0.160000E-02
    0.991467E-01    0.153124E-01    0.160000E-02
    0.100391E+00    0.153124E-01    0.160000E-02
    0.101649E+00    0.153124E-01    0.160000E-02
    0.102919E+00    0.153124E-01    0.160000E-02
    0.104201E+00    0.153124E-01    0.160000E-02
    0.105496E+00    0.153124E-01    0.160000E-02
    0.106805E+00    0.153124E-01    0.160000E-02
    0.108126E+00    0.153124E-01    0.160000E-02
    0.109461E+00    0.153124E-01    0.160000E-02
    0.110809E+00    0.153124E-01    0.160000E-02
    0.112170E+00    0.153124E-01    0.160000E-02
    0.991467E-01    0.157825E-01    0.160000E-02
    0.100391E+00    0.157825E-01    0.160000E-02
    0.101649E+00    0.157825E-01    0.160000E-02
    0.102919E+00    0.157825E-01    0.160000E-02
    0.104201E+00    0.157825E-01    0.160000E-02
    0.105496E+00    0.157825E-01    0.160000E-02
    0.106805E+00    0.157825E-01    0.160000E-02
    0.108126E+00    0.157825E-01    0.160000E-02
    0.109461E+00    0.157825E-01    0.160000E-02
    0.110809E+00    0.157825E-01    0.160000E-02
    0.112170E+00    0.157825E-01    0.160000E-02
    0.991467E-01    0.162667E-01    0.160000E-02
    0.100391E+00    0.162667E-01    0.160000E-02
    0.101649E+00    0.162667E-01    0.160000E-02
    0.102919E+00    0.162667E-01    0.160000E-02
    0.104201E+00    0.162667E-01    0.160000E-02
    0.105496E+00    0.162667E-01    0.160000E-02
    0.106805E+00    0.162667E-01    0.160000E-02
    0.108126E+00    0.162667E-01    0.160000E-02
    0.109461E+00    0.162667E-01    0.160000E-02
    0.110809E+00    0.162667E-01    0.160000E-02
    0.112170E+00    0.162667E-01    0.160000E-02
    0.991467E-01    0.167655E-01    0.160000E-02
    0.100391E+00    0.167655E-01    0.160000E-02
    0.101649E+00    0.167655E-01    0.160000E-02
    0.102919E+00    0.167655E-01    0.160000E-02
    0.104201E+00    0.167655E-01    0.160000E-02
    0.105496E+00    0.167655E-01    0.160000E-02
    0.106805E+00    0.167655E-01    0.160000E-02
    0.108126E+00    0.167655E-01    0.160000E-02
    0.109461E+00    0.167655E-01    0.160000E-02
    0.110809E+00    0.167655E-01    0.160000E-02
    0.112170E+00    0.167655E-01    0.160000E-02
</DataArray>
</Points>
<PointData>
<DataArray Name="Velocity" type="Float64" format="ascii" NumberOfComponents="3">
    0.883988E-01   -0.192985E-05    0.000000E+00
    0.883991E-01   -0.178220E-05    0.000000E+00
    0.883994E-01   -0.162536E-05    0.000000E+00
    0.883997E-01   -0.148072E-05    0.000000E+00
    0.884000E-01   -0.134751E-05    0.000000E+00
    0.884002E-01   -0.122501E-05    0.000000E+00
    0.884004E-01   -0.111251E-05    0.000000E+00
    0.884006E-01   -0.100934E-05    0.000000E+00
    0.884008E-01   -0.914824E-06    0.000000E+00
    0.884010E-01   -0.828388E-06    0.000000E+00
    0.884011E-01   -0.749369E-06    0.000000E+00
    0.883988E-01   -0.197430E-05    0.000000E+00
    0.883992E-01   -0.182323E-05    0.000000E+00
    0.883995E-01   -0.166285E-05    0.000000E+00
    0.883997E-01   -0.151492E-05    0.000000E+00
    0.884000E-01   -0.137855E-05    0.000000E+00
    0.884002E-01   -0.125302E-05    0.000000E+00
    0.884004E-01   -0.113782E-05    0.000000E+00
    0.884006E-01   -0.103242E-05    0.000000E+00
    0.884008E-01   -0.936098E-06    0.000000E+00
    0.884010E-01   -0.848033E-06    0.000000E+00
    0.884011E-01   -0.767378E-06    0.000000E+00
    0.883989E-01   -0.202007E-05    0.000000E+00
    0.883992E-01   -0.186551E-05    0.000000E+00
    0.883995E-01   -0.170142E-05    0.000000E+00
    0.883998E-01   -0.155010E-05    0.000000E+00
    0.884000E-01   -0.141066E-05    0.000000E+00
    0.884002E-01   -0.128235E-05    0.000000E+00
    0.884005E-01   -0.116456E-05    0.000000E+00
    0.884006E-01   -0.105672E-05    0.000000E+00
    0.884008E-01   -0.958100E-06    0.000000E+00
    0.884010E-01   -0.867921E-06    0.000000E+00
    0.884011E-01   -0.785346E-06    0.000000E+00
    0.883989E-01   -0.206681E-05    0.000000E+00
    0.883992E-01   -0.190867E-05    0.000000E+00
    0.883995E-01   -0.174080E-05    0.000000E+00
    0.883998E-01   -0.158602E-05    0.000000E+00
    0.884000E-01   -0.144344E-05    0.000000E+00
    0.884003E-01   -0.131226E-05    0.000000E+00
    0.884005E-01   -0.119182E-05    0.000000E+00
    0.884007E-01   -0.108148E-05    0.000000E+00
    0.884008E-01   -0.980532E-06    0.000000E+00
    0.884010E-01   -0.888207E-06    0.000000E+00
    0.884012E-01   -0.803686E-06    0.000000E+00
    0.883989E-01   -0.211425E-05    0.000000E+00
    0.883993E-01   -0.195248E-05    0.000000E+00
    0.883995E-01   -0.178076E-05    0.000000E+00
    0.883998E-01   -0.162247E-05    0.000000E+00
    0.884001E-01   -0.147670E-05    0.000000E+00
    0.884003E-01   -0.134260E-05    0.000000E+00
    0.884005E-01   -0.121945E-05    0.000000E+00
    0.884007E-01   -0.110657E-05    0.000000E+00
    0.884009E-01   -0.100327E-05    0.000000E+00
    0.884010E-01   -0.908781E-06    0.000000E+00
    0.884012E-01   -0.822294E-06    0.000000E+00
    0.883990E-01   -0.216204E-05    0.000000E+00
    0.883993E-01   -0.199661E-05    0.000000E+00
    0.883996E-01   -0.182101E-05    0.000000E+00
    0.883999E-01   -0.165918E-05    0.000000E+00
    0.884001E-01   -0.151019E-05    0.000000E+00
    0.884003E-01   -0.137314E-05    0.000000E+00
    0.884005E-01   -0.124725E-05    0.000000E+00
    0.884007E-01   -0.113181E-05    0.000000E+00
    0.884009E-01   -0.102614E-05    0.000000E+00
    0.884011E-01   -0.929485E-06    0.000000E+00
    0.884012E-01   -0.841029E-06    0.000000E+00
    0.883991E-01   -0.220975E-05    0.000000E+00
    0.883994E-01   -0.204065E-05    0.000000E+00
    0.883997E-01   -0.186118E-05    0.000000E+00
    0.883999E-01   -0.169581E-05    0.000000E+00
    0.884002E-01   -0.154361E-05    0.000000E+00
    0.884004E-01   -0.140360E-05    0.000000E+00
    0.884006E-01   -0.127496E-05    0.000000E+00
    0.884008E-01   -0.115697E-05    0.000000E+00
    0.884009E-01   -0.104894E-05    0.000000E+00
    0.884011E-01   -0.950131E-06    0.000000E+00
    0.884012E-01   -0.859719E-06    0.000000E+00
    0.883992E-01   -0.225687E-05    0.000000E+00
    0.883995E-01   -0.208414E-05    0.000000E+00
    0.883997E-01   -0.190082E-05    0.000000E+00
    0.884000E-01   -0.173197E-05    0.000000E+00
    0.884002E-01   -0.157660E-05    0.000000E+00
    0.884004E-01   -0.143367E-05    0.000000E+00
    0.884006E-01   -0.130231E-05    0.000000E+00
    0.884008E-01   -0.118178E-05    0.000000E+00
    0.884010E-01   -0.107142E-05    0.000000E+00
    0.884011E-01   -0.970500E-06    0.000000E+00
    0.884013E-01   -0.878166E-06    0.000000E+00
    0.883993E-01   -0.230286E-05    0.000000E+00
    0.883995E-01   -0.212656E-05    0.000000E+00
    0.883998E-01   -0.193949E-05    0.000000E+00
    0.884001E-01   -0.176724E-05    0.000000E+00
    0.884003E-01   -0.160878E-05    0.000000E+00
    0.884005E-01   -0.146301E-05    0.000000E+00
    0.884007E-01   -0.132897E-05    0.000000E+00
    0.884009E-01   -0.120595E-05    0.000000E+00
    0.884010E-01   -0.109332E-05    0.000000E+00
    0.884012E-01   -0.990354E-06    0.000000E+00
    0.884013E-01   -0.896154E-06    0.000000E+00
    0.883994E-01   -0.234716E-05    0.000000E+00
    0.883997E-01   -0.216741E-05    0.000000E+00
    0.883999E-01   -0.197669E-05    0.000000E+00
    0.884001E-01   -0.180118E-05    0.000000E+00
    0.884004E-01   -0.163977E-05    0.000000E+00
    0.884006E-01   -0.149125E-05    0.000000E+00
    0.884008E-01   -0.135462E-05    0.000000E+00
    0.884009E-01   -0.122918E-05    0.000000E+00
    0.884011E-01   -0.111438E-05    0.000000E+00
    0.884012E-01   -0.100945E-05    0.000000E+00
    0.884013E-01   -0.913467E-06    0.000000E+00
    0.883995E-01   -0.238884E-05    0.000000E+00
    0.883998E-01   -0.220609E-05    0.000000E+00
    0.884000E-01   -0.201220E-05    0.000000E+00
    0.884002E-01   -0.183350E-05    0.000000E+00
    0.884005E-01   -0.166898E-05    0.000000E+00
    0.884006E-01   -0.151769E-05    0.000000E+00
    0.884008E-01   -0.137874E-05    0.000000E+00
    0.884010E-01   -0.125127E-05    0.000000E+00
    0.884011E-01   -0.113443E-05    0.000000E+00
    0.884013E-01   -0.102741E-05    0.000000E+00
    0.884014E-01   -0.929468E-06    0.000000E+00
    0.883988E-01   -0.195203E-05    0.478108E-21
    0.883991E-01   -0.178220E-05    0.436513E-21
    0.883994E-01   -0.162536E-05    0.398099E-21
    0.883997E-01   -0.148072E-05    0.362672E-21
    0.884000E-01   -0.134751E-05    0.330046E-21
    0.884002E-01   -0.122501E-05    0.300041E-21
    0.884004E-01   -0.111251E-05    0.272485E-21
    0.884006E-01   -0.100934E-05    0.247216E-21
    0.884008E-01   -0.914824E-06    0.224067E-21
    0.884010E-01   -0.828388E-06    0.202896E-21
    0.884011E-01   -0.749369E-06    0.183542E-21
    0.883988E-01   -0.199699E-05    0.489122E-21
    0.883992E-01   -0.182323E-05    0.446563E-21
    0.883995E-01   -0.166285E-05    0.407281E-21
    0.883997E-01   -0.151492E-05    0.371049E-21
    0.884000E-01   -0.137855E-05    0.337647E-21
    0.884002E-01   -0.125302E-05    0.306900E-21
    0.884004E-01   -0.113782E-05    0.278685E-21
    0.884006E-01   -0.103242E-05    0.252870E-21
    0.884008E-01   -0.936098E-06    0.229278E-21
    0.884010E-01   -0.848033E-06    0.207708E-21
    0.884011E-01   -0.767378E-06    0.187953E-21
    0.883989E-01   -0.204329E-05    0.500461E-21
    0.883992E-01   -0.186551E-05    0.456918E-21
    0.883995E-01   -0.170142E-05    0.416728E-21
    0.883998E-01   -0.155010E-05    0.379666E-21
    0.884000E-01   -0.141066E-05    0.345513E-21
    0.884002E-01   -0.128235E-05    0.314084E-21
    0.884005E-01   -0.116456E-05    0.285236E-21
    0.884006E-01   -0.105672E-05    0.258821E-21
    0.884008E-01   -0.958100E-06    0.234667E-21
    0.884010E-01   -0.867921E-06    0.212579E-21
    0.884011E-01   -0.785346E-06    0.192354E-21
    0.883989E-01   -0.209056E-05    0.512040E-21
    0.883992E-01   -0.190867E-05    0.467490E-21
    0.883995E-01   -0.174080E-05    0.426373E-21
    0.883998E-01   -0.158602E-05    0.388463E-21
    0.884000E-01   -0.144344E-05    0.353541E-21
    0.884003E-01   -0.131226E-05    0.321411E-21
    0.884005E-01   -0.119182E-05    0.291912E-21
    0.884007E-01   -0.108148E-05    0.264886E-21
    0.884008E-01   -0.980532E-06    0.240161E-21
    0.884010E-01   -0.888207E-06    0.217548E-21
    0.884012E-01   -0.803686E-06    0.196846E-21
    0.883989E-01   -0.213855E-05    0.523793E-21
    0.883993E-01   -0.195248E-05    0.478221E-21
    0.883995E-01   -0.178076E-05    0.436161E-21
    0.883998E-01   -0.162247E-05    0.397391E-21
    0.884001E-01   -0.147670E-05    0.361687E-21
    0.884003E-01   -0.134260E-05    0.328842E-21
    0.884005E-01   -0.121945E-05    0.298679E-21
    0.884007E-01   -0.110657E-05    0.271032E-21
    0.884009E-01   -0.100327E-05    0.245730E-21
    0.884010E-01   -0.908781E-06    0.222587E-21
    0.884012E-01   -0.822294E-06    0.201404E-21
    0.883990E-01   -0.218689E-05    0.535634E-21
    0.883993E-01   -0.199661E-05    0.489029E-21
    0.883996E-01   -0.182101E-05    0.446020E-21
    0.883999E-01   -0.165918E-05    0.406383E-21
    0.884001E-01   -0.151019E-05    0.369890E-21
    0.884003E-01   -0.137314E-05    0.336322E-21
    0.884005E-01   -0.124725E-05    0.305488E-21
    0.884007E-01   -0.113181E-05    0.277214E-21
    0.884009E-01   -0.102614E-05    0.251332E-21
    0.884011E-01   -0.929485E-06    0.227658E-21
    0.884012E-01   -0.841029E-06    0.205993E-21
    0.883991E-01   -0.223515E-05    0.547454E-21
    0.883994E-01   -0.204065E-05    0.499816E-21
    0.883997E-01   -0.186118E-05    0.455857E-21
    0.883999E-01   -0.169581E-05    0.415355E-21
    0.884002E-01   -0.154361E-05    0.378075E-21
    0.884004E-01   -0.140360E-05    0.343784E-21
    0.884006E-01   -0.127496E-05    0.312276E-21
    0.884008E-01   -0.115697E-05    0.283376E-21
    0.884009E-01   -0.104894E-05    0.256916E-21
    0.884011E-01   -0.950131E-06    0.232715E-21
    0.884012E-01   -0.859719E-06    0.210570E-21
    0.883992E-01   -0.228281E-05    0.559128E-21
    0.883995E-01   -0.208414E-05    0.510467E-21
    0.883997E-01   -0.190082E-05    0.465567E-21
    0.884000E-01   -0.173197E-05    0.424211E-21
    0.884002E-01   -0.157660E-05    0.386155E-21
    0.884004E-01   -0.143367E-05    0.351149E-21
    0.884006E-01   -0.130231E-05    0.318974E-21
    0.884008E-01   -0.118178E-05    0.289452E-21
    0.884010E-01   -0.107142E-05    0.262422E-21
    0.884011E-01   -0.970500E-06    0.237704E-21
    0.884013E-01   -0.878166E-06    0.215089E-21
    0.883993E-01   -0.232933E-05    0.570522E-21
    0.883995E-01   -0.212656E-05    0.520858E-21
    0.883998E-01   -0.193949E-05    0.475037E-21
    0.884001E-01   -0.176724E-05    0.432849E-21
    0.884003E-01   -0.160878E-05    0.394037E-21
    0.884005E-01   -0.146301E-05    0.358333E-21
    0.884007E-01   -0.132897E-05    0.325503E-21
    0.884009E-01   -0.120595E-05    0.295372E-21
    0.884010E-01   -0.109332E-05    0.267786E-21
    0.884012E-01   -0.990354E-06    0.242567E-21
    0.884013E-01   -0.896154E-06    0.219494E-21
    0.883994E-01   -0.237415E-05    0.581499E-21
    0.883997E-01   -0.216741E-05    0.530862E-21
    0.883999E-01   -0.197669E-05    0.484149E-21
    0.884001E-01   -0.180118E-05    0.441161E-21
    0.884004E-01   -0.163977E-05    0.401627E-21
    0.884006E-01   -0.149125E-05    0.365250E-21
    0.884008E-01   -0.135462E-05    0.331786E-21
    0.884009E-01   -0.122918E-05    0.301063E-21
    0.884011E-01   -0.111438E-05    0.272943E-21
    0.884012E-01   -0.100945E-05    0.247245E-21
    0.884013E-01   -0.913467E-06    0.223735E-21
    0.883995E-01   -0.241630E-05    0.591824E-21
    0.883998E-01   -0.220609E-05    0.540336E-21
    0.884000E-01   -0.201220E-05    0.492848E-21
    0.884002E-01   -0.183350E-05    0.449079E-21
    0.884005E-01   -0.166898E-05    0.408783E-21
    0.884006E-01   -0.151769E-05    0.371727E-21
    0.884008E-01   -0.137874E-05    0.337694E-21
    0.884010E-01   -0.125127E-05    0.306472E-21
    0.884011E-01   -0.113443E-05    0.277854E-21
    0.884013E-01   -0.102741E-05    0.251644E-21
    0.884014E-01   -0.929468E-06    0.227654E-21
</DataArray>
</PointData>
<CellData>
<DataArray Name="DP" type="Float64" format="ascii" NumberOfComponents="1">
      0.000000E+0000
      0.000000E+0000
      0.000000E+0000
      0.000000E+0000
      0.000000E+0000
      0.000000E+0000
      0.000000E+0000
      0.000000E+0000
      0.000000E+0000
      0.000000E+0000
      0.000000E+0000
      0.000000E+0000
      0.000000E+0000
      0.000000E+0000
      0.000000E+0000
      0.000000E+0000
      0.000000E+0000
      0.000000E+0000
      0.000000E+0000
      0.000000E+0000
      0.000000E+0000
      0.000000E+0000
      0.000000E+0000
      0.000000E+0000
      0.000000E+0000
      0.000000E+0000
      0.000000E+0000
      0.000000E+0000
      0.000000E+0000
      0.000000E+0000
      0.000000E+0000
      0.000000E+0000
      0.000000E+0000
      0.000000E+0000
      0.000000E+0000
      0.000000E+0000
      0.000000E+0000
      0.000000E+0000
      0.000000E+0000
      0.000000E+0000
      0.000000E+0000
      0.000000E+0000
      0.000000E+0000
      0.000000E+0000
      0.000000E+0000
      0.000000E+0000
      0.000000E+0000
      0.000000E+0000
      0.000000E+0000
      0.000000E+0000
      0.000000E+0000
      0.000000E+0000
      0.000000E+0000
      0.000000E+0000
      0.000000E+0000
      0.000000E+0000
      0.000000E+0000
      0.000000E+0000
      0.000000E+0000
      0.000000E+0000
      0.000000E+0000
      0.000000E+0000
      0.000000E+0000
      0.000000E+0000
      0.000000E+0000
      0.000000E+0000
      0.000000E+0000
      0.000000E+0000
      0.000000E+0000
      0.000000E+0000
      0.000000E+0000
      0.000000E+0000
      0.000000E+0000
      0.000000E+0000
      0.000000E+0000
      0.000000E+0000
      0.000000E+0000
      0.000000E+0000
      0.000000E+0000
      0.000000E+0000
      0.000000E+0000
      0.000000E+0000
      0.000000E+0000
      0.000000E+0000
      0.000000E+0000
      0.000000E+0000
      0.000000E+0000
      0.000000E+0000
      0.000000E+0000
      0.000000E+0000
      0.000000E+0000
      0.000000E+0000
      0.000000E+0000
      0.000000E+0000
      0.000000E+0000
      0.000000E+0000
      0.000000E+0000
      0.000000E+0000
      0.000000E+0000
      0.000000E+0000
</DataArray>
<DataArray Name="P" type="Float64" format="ascii" NumberOfComponents="1">
     -0.513905E+0000
     -0.528288E+0000
     -0.542815E+0000
     -0.557487E+0000
     -0.572305E+0000
     -0.587272E+0000
     -0.602389E+0000
     -0.617657E+0000
     -0.633078E+0000
     -0.648652E+0000
     -0.513904E+0000
     -0.528288E+0000
     -0.542815E+0000
     -0.557487E+0000
     -0.572306E+0000
     -0.587272E+0000
     -0.602389E+0000
     -0.617657E+0000
     -0.633078E+0000
     -0.648653E+0000
     -0.513904E+0000
     -0.528288E+0000
     -0.542815E+0000
     -0.557487E+0000
     -0.572306E+0000
     -0.587273E+0000
     -0.602390E+0000
     -0.617658E+0000
     -0.633078E+0000
     -0.648653E+0000
     -0.513904E+0000
     -0.528288E+0000
     -0.542815E+0000
     -0.557487E+0000
     -0.572306E+0000
     -0.587273E+0000
     -0.602390E+0000
     -0.617658E+0000
     -0.633078E+0000
     -0.648653E+0000
     -0.513903E+0000
     -0.528287E+0000
     -0.542815E+0000
     -0.557488E+0000
     -0.572307E+0000
     -0.587274E+0000
     -0.602391E+0000
     -0.617659E+0000
     -0.633079E+0000
     -0.648653E+0000
     -0.513903E+0000
     -0.528287E+0000
     -0.542815E+0000
     -0.557488E+0000
     -0.572307E+0000
     -0.587274E+0000
     -0.602391E+0000
     -0.617659E+0000
     -0.633079E+0000
     -0.648653E+0000
     -0.513903E+0000
     -0.528287E+0000
     -0.542815E+0000
     -0.557488E+0000
     -0.572307E+0000
     -0.587275E+0000
     -0.602392E+0000
     -0.617659E+0000
     -0.633079E+0000
     -0.648653E+0000
     -0.513903E+0000
     -0.528287E+0000
     -0.542815E+0000
     -0.557488E+0000
     -0.572308E+0000
     -0.587275E+0000
     -0.602392E+0000
     -0.617660E+0000
     -0.633080E+0000
     -0.648653E+0000
     -0.513902E+0000
     -0.528287E+0000
     -0.542815E+0000
     -0.557488E+0000
     -0.572308E+0000
     -0.587276E+0000
     -0.602393E+0000
     -0.617660E+0000
     -0.633080E+0000
     -0.648653E+0000
     -0.513902E+0000
     -0.528287E+0000
     -0.542815E+0000
     -0.557489E+0000
     -0.572309E+0000
     -0.587276E+0000
     -0.602393E+0000
     -0.617660E+0000
     -0.633080E+0000
     -0.648654E+0000
</DataArray>
<DataArray Name="RHO" type="Float64" format="ascii" NumberOfComponents="1">
      0.117197E+0001
      0.117197E+0001
      0.117197E+0001
      0.117197E+0001
      0.117197E+0001
      0.117197E+0001
      0.117197E+0001
      0.117197E+0001
      0.117197E+0001
      0.117197E+0001
      0.117197E+0001
      0.117197E+0001
      0.117197E+0001
      0.117197E+0001
      0.117197E+0001
      0.117197E+0001
      0.117197E+0001
      0.117197E+0001
      0.117197E+0001
      0.117197E+0001
      0.117197E+0001
      0.117197E+0001
      0.117197E+0001
      0.117197E+0001
      0.117197E+0001
      0.117197E+0001
      0.117197E+0001
      0.117197E+0001
      0.117197E+0001
      0.117197E+0001
      0.117197E+0001
      0.117197E+0001
      0.117197E+0001
      0.117197E+0001
      0.117197E+0001
      0.117197E+0001
      0.117197E+0001
      0.117197E+0001
      0.117197E+0001
      0.117197E+0001
      0.117197E+0001
      0.117197E+0001
      0.117197E+0001
      0.117197E+0001
      0.117197E+0001
      0.117197E+0001
      0.117197E+0001
      0.117197E+0001
      0.117197E+0001
      0.117197E+0001
      0.117197E+0001
      0.117197E+0001
      0.117197E+0001
      0.117197E+0001
      0.117197E+0001
      0.117197E+0001
      0.117197E+0001
      0.117197E+0001
      0.117197E+0001
      0.117197E+0001
      0.117197E+0001
      0.117197E+0001