<?xml version="1.0"?>
<VTKFile type="StructuredGrid" version="0.1" byte_order="LittleEndian">
<StructuredGrid WholeExtent="         150         160          80          90           0           1">
<Piece Extent="         150         160          80          90           0           1">
<Points>
<DataArray NumberOfComponents="3" type="Float64" format="ascii">
    0.873569E-01    0.305691E-01    0.000000E+00
    0.884838E-01    0.305691E-01    0.000000E+00
    0.896219E-01    0.305691E-01    0.000000E+00
    0.907715E-01    0.305691E-01    0.000000E+00
    0.919325E-01    0.305691E-01    0.000000E+00
    0.931052E-01    0.305691E-01    0.000000E+00
    0.942896E-01    0.305691E-01    0.000000E+00
    0.954858E-01    0.305691E-01    0.000000E+00
    0.966940E-01    0.305691E-01    0.000000E+00
    0.979142E-01    0.305691E-01    0.000000E+00
    0.991467E-01    0.305691E-01    0.000000E+00
    0.873569E-01    0.314969E-01    0.000000E+00
    0.884838E-01    0.314969E-01    0.000000E+00
    0.896219E-01    0.314969E-01    0.000000E+00
    0.907715E-01    0.314969E-01    0.000000E+00
    0.919325E-01    0.314969E-01    0.000000E+00
    0.931052E-01    0.314969E-01    0.000000E+00
    0.942896E-01    0.314969E-01    0.000000E+00
    0.954858E-01    0.314969E-01    0.000000E+00
    0.966940E-01    0.314969E-01    0.000000E+00
    0.979142E-01    0.314969E-01    0.000000E+00
    0.991467E-01    0.314969E-01    0.000000E+00
    0.873569E-01    0.324526E-01    0.000000E+00
    0.884838E-01    0.324526E-01    0.000000E+00
    0.896219E-01    0.324526E-01    0.000000E+00
    0.907715E-01    0.324526E-01    0.000000E+00
    0.919325E-01    0.324526E-01    0.000000E+00
    0.931052E-01    0.324526E-01    0.000000E+00
    0.942896E-01    0.324526E-01    0.000000E+00
    0.954858E-01    0.324526E-01    0.000000E+00
    0.966940E-01    0.324526E-01    0.000000E+00
    0.979142E-01    0.324526E-01    0.000000E+00
    0.991467E-01    0.324526E-01    0.000000E+00
    0.873569E-01    0.334369E-01    0.000000E+00
    0.884838E-01    0.334369E-01    0.000000E+00
    0.896219E-01    0.334369E-01    0.000000E+00
    0.907715E-01    0.334369E-01    0.000000E+00
    0.919325E-01    0.334369E-01    0.000000E+00
    0.931052E-01    0.334369E-01    0.000000E+00
    0.942896E-01    0.334369E-01    0.000000E+00
    0.954858E-01    0.334369E-01    0.000000E+00
    0.966940E-01    0.334369E-01    0.000000E+00
    0.979142E-01    0.334369E-01    0.000000E+00
    0.991467E-01    0.334369E-01    0.000000E+00
    0.873569E-01    0.344508E-01    0.000000E+00
    0.884838E-01    0.344508E-01    0.000000E+00
    0.896219E-01    0.344508E-01    0.000000E+00
    0.907715E-01    0.344508E-01    0.000000E+00
    0.919325E-01    0.344508E-01    0.000000E+00
    0.931052E-01    0.344508E-01    0.000000E+00
    0.942896E-01    0.344508E-01    0.000000E+00
    0.954858E-01    0.344508E-01    0.000000E+00
    0.966940E-01    0.344508E-01    0.000000E+00
    0.979142E-01    0.344508E-01    0.000000E+00
    0.991467E-01    0.344508E-01    0.000000E+00
    0.873569E-01    0.354950E-01    0.000000E+00
    0.884838E-01    0.354950E-01    0.000000E+00
    0.896219E-01    0.354950E-01    0.000000E+00
    0.907715E-01    0.354950E-01    0.000000E+00
    0.919325E-01    0.354950E-01    0.000000E+00
    0.931052E-01    0.354950E-01    0.000000E+00
    0.942896E-01    0.354950E-01    0.000000E+00
    0.954858E-01    0.354950E-01    0.000000E+00
    0.966940E-01    0.354950E-01    0.000000E+00
    0.979142E-01    0.354950E-01    0.000000E+00
    0.991467E-01    0.354950E-01    0.000000E+00
    0.873569E-01    0.365706E-01    0.000000E+00
    0.884838E-01    0.365706E-01    0.000000E+00
    0.896219E-01    0.365706E-01    0.000000E+00
    0.907715E-01    0.365706E-01    0.000000E+00
    0.919325E-01    0.365706E-01    0.000000E+00
    0.931052E-01    0.365706E-01    0.000000E+00
    0.942896E-01    0.365706E-01    0.000000E+00
    0.954858E-01    0.365706E-01    0.000000E+00
    0.966940E-01    0.365706E-01    0.000000E+00
    0.979142E-01    0.365706E-01    0.000000E+00
    0.991467E-01    0.365706E-01    0.000000E+00
    0.873569E-01    0.376785E-01    0.000000E+00
    0.884838E-01    0.376785E-01    0.000000E+00
    0.896219E-01    0.376785E-01    0.000000E+00
    0.907715E-01    0.376785E-01    0.000000E+00
    0.919325E-01    0.376785E-01    0.000000E+00
    0.931052E-01    0.376785E-01    0.000000E+00
    0.942896E-01    0.376785E-01    0.000000E+00
    0.954858E-01    0.376785E-01    0.000000E+00
    0.966940E-01    0.376785E-01    0.000000E+00
    0.979142E-01    0.376785E-01    0.000000E+00
    0.991467E-01    0.376785E-01    0.000000E+00
    0.873569E-01    0.388196E-01    0.000000E+00
    0.884838E-01    0.388196E-01    0.000000E+00
    0.896219E-01    0.388196E-01    0.000000E+00
    0.907715E-01    0.388196E-01    0.000000E+00
    0.919325E-01    0.388196E-01    0.000000E+00
    0.931052E-01    0.388196E-01    0.000000E+00
    0.942896E-01    0.388196E-01    0.000000E+00
    0.954858E-01    0.388196E-01    0.000000E+00
    0.966940E-01    0.388196E-01    0.000000E+00
    0.979142E-01    0.388196E-01    0.000000E+00
    0.991467E-01    0.388196E-01    0.000000E+00
    0.873569E-01    0.399949E-01    0.000000E+00
    0.884838E-01    0.399949E-01    0.000000E+00
    0.896219E-01    0.399949E-01    0.000000E+00
    0.907715E-01    0.399949E-01    0.000000E+00
    0.919325E-01    0.399949E-01    0.000000E+00
    0.931052E-01    0.399949E-01    0.000000E+00
    0.942896E-01    0.399949E-01    0.000000E+00
    0.954858E-01    0.399949E-01    0.000000E+00
    0.966940E-01    0.399949E-01    0.000000E+00
    0.979142E-01    0.399949E-01    0.000000E+00
    0.991467E-01    0.399949E-01    0.000000E+00
    0.873569E-01    0.412055E-01    0.000000E+00
    0.884838E-01    0.412055E-01    0.000000E+00
    0.896219E-01    0.412055E-01    0.000000E+00
    0.907715E-01    0.412055E-01    0.000000E+00
    0.919325E-01    0.412055E-01    0.000000E+00
    0.931052E-01    0.412055E-01    0.000000E+00
    0.942896E-01    0.412055E-01    0.000000E+00
    0.954858E-01    0.412055E-01    0.000000E+00
    0.966940E-01    0.412055E-01    0.000000E+00
    0.979142E-01    0.412055E-01    0.000000E+00
    0.991467E-01    0.412055E-01    0.000000E+00
    0.873569E-01    0.305691E-01    0.160000E-02
    0.884838E-01    0.305691E-01    0.160000E-02
    0.896219E-01    0.305691E-01    0.160000E-02
    0.907715E-01    0.305691E-01    0.160000E-02
    0.919325E-01    0.305691E-01    0.160000E-02
    0.931052E-01    0.305691E-01    0.160000E-02
    0.942896E-01    0.305691E-01    0.160000E-02
    0.954858E-01    0.305691E-01    0.160000E-02
    0.966940E-01    0.305691E-01    0.160000E-02
    0.979142E-01    0.305691E-01    0.160000E-02
    0.991467E-01    0.305691E-01    0.160000E-02
    0.873569E-01    0.314969E-01    0.160000E-02
    0.884838E-01    0.314969E-01    0.160000E-02
    0.896219E-01    0.314969E-01    0.160000E-02
    0.907715E-01    0.314969E-01    0.160000E-02
    0.919325E-01    0.314969E-01    0.160000E-02
    0.931052E-01    0.314969E-01    0.160000E-02
    0.942896E-01    0.314969E-01    0.160000E-02
    0.954858E-01    0.314969E-01    0.160000E-02
    0.966940E-01    0.314969E-01    0.160000E-02
    0.979142E-01    0.314969E-01    0.160000E-02
    0.991467E-01    0.314969E-01    0.160000E-02
    0.873569E-01    0.324526E-01    0.160000E-02
    0.884838E-01    0.324526E-01    0.160000E-02
    0.896219E-01    0.324526E-01    0.160000E-02
    0.907715E-01    0.324526E-01    0.160000E-02
    0.919325E-01    0.324526E-01    0.160000E-02
    0.931052E-01    0.324526E-01    0.160000E-02
    0.942896E-01    0.324526E-01    0.160000E-02
    0.954858E-01    0.324526E-01    0.160000E-02
    0.966940E-01    0.324526E-01    0.160000E-02
    0.979142E-01    0.324526E-01    0.160000E-02
    0.991467E-01    0.324526E-01    0.160000E-02
    0.873569E-01    0.334369E-01    0.160000E-02
    0.884838E-01    0.334369E-01    0.160000E-02
    0.896219E-01    0.334369E-01    0.160000E-02
    0.907715E-01    0.334369E-01    0.160000E-02
    0.919325E-01    0.334369E-01    0.160000E-02
    0.931052E-01    0.334369E-01    0.160000E-02
    0.942896E-01    0.334369E-01    0.160000E-02
    0.954858E-01    0.334369E-01    0.160000E-02
    0.966940E-01    0.334369E-01    0.160000E-02
    0.979142E-01    0.334369E-01    0.160000E-02
    0.991467E-01    0.334369E-01    0.160000E-02
    0.873569E-01    0.344508E-01    0.160000E-02
    0.884838E-01    0.344508E-01    0.160000E-02
    0.896219E-01    0.344508E-01    0.160000E-02
    0.907715E-01    0.344508E-01    0.160000E-02
    0.919325E-01    0.344508E-01    0.160000E-02
    0.931052E-01    0.344508E-01    0.160000E-02
    0.942896E-01    0.344508E-01    0.160000E-02
    0.954858E-01    0.344508E-01    0.160000E-02
    0.966940E-01    0.344508E-01    0.160000E-02
    0.979142E-01    0.344508E-01    0.160000E-02
    0.991467E-01    0.344508E-01    0.160000E-02
    0.873569E-01    0.354950E-01    0.160000E-02
    0.884838E-01    0.354950E-01    0.160000E-02
    0.896219E-01    0.354950E-01    0.160000E-02
    0.907715E-01    0.354950E-01    0.160000E-02
    0.919325E-01    0.354950E-01    0.160000E-02
    0.931052E-01    0.354950E-01    0.160000E-02
    0.942896E-01    0.354950E-01    0.160000E-02
    0.954858E-01    0.354950E-01    0.160000E-02
    0.966940E-01    0.354950E-01    0.160000E-02
    0.979142E-01    0.354950E-01    0.160000E-02
    0.991467E-01    0.354950E-01    0.160000E-02
    0.873569E-01    0.365706E-01    0.160000E-02
    0.884838E-01    0.365706E-01    0.160000E-02
    0.896219E-01    0.365706E-01    0.160000E-02
    0.907715E-01    0.365706E-01    0.160000E-02
    0.919325E-01    0.365706E-01    0.160000E-02
    0.931052E-01    0.365706E-01    0.160000E-02
    0.942896E-01    0.365706E-01    0.160000E-02
    0.954858E-01    0.365706E-01    0.160000E-02
    0.966940E-01    0.365706E-01    0.160000E-02
    0.979142E-01    0.365706E-01    0.160000E-02
    0.991467E-01    0.365706E-01    0.160000E-02
    0.873569E-01    0.376785E-01    0.160000E-02
    0.884838E-01    0.376785E-01    0.160000E-02
    0.896219E-01    0.376785E-01    0.160000E-02
    0.907715E-01    0.376785E-01    0.160000E-02
    0.919325E-01    0.376785E-01    0.160000E-02
    0.931052E-01    0.376785E-01    0.160000E-02
    0.942896E-01    0.376785E-01    0.160000E-02
    0.954858E-01    0.376785E-01    0.160000E-02
    0.966940E-01    0.376785E-01    0.160000E-02
    0.979142E-01    0.376785E-01    0.160000E-02
    0.991467E-01    0.376785E-01    0.160000E-02
    0.873569E-01    0.388196E-01    0.160000E-02
    0.884838E-01    0.388196E-01    0.160000E-02
    0.896219E-01    0.388196E-01    0.160000E-02
    0.907715E-01    0.388196E-01    0.160000E-02
    0.919325E-01    0.388196E-01    0.160000E-02
    0.931052E-01    0.388196E-01    0.160000E-02
    0.942896E-01    0.388196E-01    0.160000E-02
    0.954858E-01    0.388196E-01    0.160000E-02
    0.966940E-01    0.388196E-01    0.160000E-02
    0.979142E-01    0.388196E-01    0.160000E-02
    0.991467E-01    0.388196E-01    0.160000E-02
    0.873569E-01    0.399949E-01    0.160000E-02
    0.884838E-01    0.399949E-01    0.160000E-02
    0.896219E-01    0.399949E-01    0.160000E-02
    0.907715E-01    0.399949E-01    0.160000E-02
    0.919325E-01    0.399949E-01    0.160000E-02
    0.931052E-01    0.399949E-01    0.160000E-02
    0.942896E-01    0.399949E-01    0.160000E-02
    0.954858E-01    0.399949E-01    0.160000E-02
    0.966940E-01    0.399949E-01    0.160000E-02
    0.979142E-01    0.399949E-01    0.160000E-02
    0.991467E-01    0.399949E-01    0.160000E-02
    0.873569E-01    0.412055E-01    0.160000E-02
    0.884838E-01    0.412055E-01    0.160000E-02
    0.896219E-01    0.412055E-01    0.160000E-02
    0.907715E-01    0.412055E-01    0.160000E-02
    0.919325E-01    0.412055E-01    0.160000E-02
    0.931052E-01    0.412055E-01    0.160000E-02
    0.942896E-01    0.412055E-01    0.160000E-02
    0.954858E-01    0.412055E-01    0.160000E-02
    0.966940E-01    0.412055E-01    0.160000E-02
    0.979142E-01    0.412055E-01    0.160000E-02
    0.991467E-01    0.412055E-01    0.160000E-02
</DataArray>
</Points>
<PointData>
<DataArray Name="Velocity" type="Float64" format="ascii" NumberOfComponents="3">
    0.884018E-01   -0.631097E-05    0.000000E+00
    0.884019E-01   -0.587112E-05    0.000000E+00
    0.884019E-01   -0.540103E-05    0.000000E+00
    0.884020E-01   -0.496437E-05    0.000000E+00
    0.884020E-01   -0.455910E-05    0.000000E+00
    0.884021E-01   -0.418329E-05    0.000000E+00
    0.884021E-01   -0.383509E-05    0.000000E+00
    0.884022E-01   -0.351274E-05    0.000000E+00
    0.884022E-01   -0.321459E-05    0.000000E+00
    0.884022E-01   -0.293906E-05    0.000000E+00
    0.884023E-01   -0.268466E-05    0.000000E+00
    0.884021E-01   -0.616457E-05    0.000000E+00
    0.884022E-01   -0.573460E-05    0.000000E+00
    0.884022E-01   -0.527509E-05    0.000000E+00
    0.884022E-01   -0.484831E-05    0.000000E+00
    0.884023E-01   -0.445225E-05    0.000000E+00
    0.884023E-01   -0.408502E-05    0.000000E+00
    0.884023E-01   -0.374477E-05    0.000000E+00
    0.884023E-01   -0.342979E-05    0.000000E+00
    0.884024E-01   -0.313843E-05    0.000000E+00
    0.884024E-01   -0.286917E-05    0.000000E+00
    0.884024E-01   -0.262056E-05    0.000000E+00
    0.884023E-01   -0.601187E-05    0.000000E+00
    0.884023E-01   -0.559224E-05    0.000000E+00
    0.884024E-01   -0.514381E-05    0.000000E+00
    0.884024E-01   -0.472735E-05    0.000000E+00
    0.884024E-01   -0.434089E-05    0.000000E+00
    0.884024E-01   -0.398257E-05    0.000000E+00
    0.884024E-01   -0.365060E-05    0.000000E+00
    0.884024E-01   -0.334331E-05    0.000000E+00
    0.884025E-01   -0.305910E-05    0.000000E+00
    0.884025E-01   -0.279647E-05    0.000000E+00
    0.884025E-01   -0.255401E-05    0.000000E+00
    0.884026E-01   -0.584901E-05    0.000000E+00
    0.884026E-01   -0.544046E-05    0.000000E+00
    0.884026E-01   -0.500391E-05    0.000000E+00
    0.884026E-01   -0.459849E-05    0.000000E+00
    0.884026E-01   -0.422230E-05    0.000000E+00
    0.884026E-01   -0.387352E-05    0.000000E+00
    0.884026E-01   -0.355042E-05    0.000000E+00
    0.884026E-01   -0.325136E-05    0.000000E+00
    0.884026E-01   -0.297478E-05    0.000000E+00
    0.884026E-01   -0.271923E-05    0.000000E+00
    0.884026E-01   -0.248332E-05    0.000000E+00
    0.884029E-01   -0.567002E-05    0.000000E+00
    0.884029E-01   -0.527370E-05    0.000000E+00
    0.884028E-01   -0.485025E-05    0.000000E+00
    0.884028E-01   -0.445701E-05    0.000000E+00
    0.884028E-01   -0.409215E-05    0.000000E+00
    0.884028E-01   -0.375389E-05    0.000000E+00
    0.884028E-01   -0.344056E-05    0.000000E+00
    0.884028E-01   -0.315056E-05    0.000000E+00
    0.884027E-01   -0.288240E-05    0.000000E+00
    0.884027E-01   -0.263463E-05    0.000000E+00
    0.884027E-01   -0.240594E-05    0.000000E+00
    0.884033E-01   -0.546933E-05    0.000000E+00
    0.884032E-01   -0.508678E-05    0.000000E+00
    0.884032E-01   -0.467805E-05    0.000000E+00
    0.884031E-01   -0.429851E-05    0.000000E+00
    0.884031E-01   -0.394638E-05    0.000000E+00
    0.884030E-01   -0.361994E-05    0.000000E+00
    0.884030E-01   -0.331759E-05    0.000000E+00
    0.884030E-01   -0.303778E-05    0.000000E+00
    0.884029E-01   -0.277905E-05    0.000000E+00
    0.884029E-01   -0.254003E-05    0.000000E+00
    0.884029E-01   -0.231942E-05    0.000000E+00
    0.884037E-01   -0.524272E-05    0.000000E+00
    0.884036E-01   -0.487574E-05    0.000000E+00
    0.884035E-01   -0.448368E-05    0.000000E+00
    0.884034E-01   -0.411964E-05    0.000000E+00
    0.884034E-01   -0.378190E-05    0.000000E+00
    0.884033E-01   -0.346884E-05    0.000000E+00
    0.884032E-01   -0.317890E-05    0.000000E+00
    0.884032E-01   -0.291060E-05    0.000000E+00
    0.884031E-01   -0.266255E-05    0.000000E+00
    0.884031E-01   -0.243341E-05    0.000000E+00
    0.884030E-01   -0.222193E-05    0.000000E+00
    0.884041E-01   -0.498706E-05    0.000000E+00
    0.884040E-01   -0.463768E-05    0.000000E+00
    0.884039E-01   -0.426444E-05    0.000000E+00
    0.884038E-01   -0.391790E-05    0.000000E+00
    0.884037E-01   -0.359644E-05    0.000000E+00
    0.884036E-01   -0.329848E-05    0.000000E+00
    0.884035E-01   -0.302256E-05    0.000000E+00
    0.884034E-01   -0.276726E-05    0.000000E+00
    0.884034E-01   -0.253125E-05    0.000000E+00
    0.884033E-01   -0.231325E-05    0.000000E+00
    0.884032E-01   -0.211208E-05    0.000000E+00
    0.884046E-01   -0.469933E-05    0.000000E+00
    0.884044E-01   -0.436977E-05    0.000000E+00
    0.884043E-01   -0.401773E-05    0.000000E+00
    0.884041E-01   -0.369091E-05    0.000000E+00
    0.884040E-01   -0.338776E-05    0.000000E+00
    0.884039E-01   -0.310682E-05    0.000000E+00
    0.884038E-01   -0.284668E-05    0.000000E+00
    0.884037E-01   -0.260602E-05    0.000000E+00
    0.884036E-01   -0.238356E-05    0.000000E+00
    0.884035E-01   -0.217811E-05    0.000000E+00
    0.884034E-01   -0.198852E-05    0.000000E+00
    0.884051E-01   -0.437544E-05    0.000000E+00
    0.884049E-01   -0.406819E-05    0.000000E+00
    0.884047E-01   -0.374001E-05    0.000000E+00
    0.884045E-01   -0.343538E-05    0.000000E+00
    0.884044E-01   -0.315285E-05    0.000000E+00
    0.884042E-01   -0.289105E-05    0.000000E+00
    0.884041E-01   -0.264869E-05    0.000000E+00
    0.884040E-01   -0.242451E-05    0.000000E+00
    0.884039E-01   -0.221730E-05    0.000000E+00
    0.884037E-01   -0.202596E-05    0.000000E+00
    0.884036E-01   -0.184942E-05    0.000000E+00
    0.884056E-01   -0.400944E-05    0.000000E+00
    0.884054E-01   -0.372736E-05    0.000000E+00
    0.884052E-01   -0.342611E-05    0.000000E+00
    0.884050E-01   -0.314654E-05    0.000000E+00
    0.884048E-01   -0.288730E-05    0.000000E+00
    0.884046E-01   -0.264712E-05    0.000000E+00
    0.884044E-01   -0.242480E-05    0.000000E+00
    0.884043E-01   -0.221919E-05    0.000000E+00
    0.884041E-01   -0.202919E-05    0.000000E+00
    0.884040E-01   -0.185379E-05    0.000000E+00
    0.884039E-01   -0.169200E-05    0.000000E+00
    0.884017E-01   -0.637678E-05    0.156186E-20
    0.884018E-01   -0.587112E-05    0.143801E-20
    0.884018E-01   -0.540103E-05    0.132287E-20
    0.884019E-01   -0.496437E-05    0.121592E-20
    0.884020E-01   -0.455910E-05    0.111666E-20
    0.884020E-01   -0.418329E-05    0.102461E-20
    0.884021E-01   -0.383509E-05    0.939326E-21
    0.884021E-01   -0.351274E-05    0.860374E-21
    0.884022E-01   -0.321459E-05    0.787348E-21
    0.884022E-01   -0.293906E-05    0.719863E-21
    0.884022E-01   -0.268466E-05    0.657551E-21
    0.884021E-01   -0.622890E-05    0.152564E-20
    0.884022E-01   -0.573460E-05    0.140457E-20
    0.884022E-01   -0.527509E-05    0.129202E-20
    0.884022E-01   -0.484831E-05    0.118749E-20
    0.884023E-01   -0.445225E-05    0.109049E-20
    0.884023E-01   -0.408502E-05    0.100054E-20
    0.884023E-01   -0.374477E-05    0.917205E-21
    0.884023E-01   -0.342979E-05    0.840055E-21
    0.884024E-01   -0.313843E-05    0.768694E-21
    0.884024E-01   -0.286917E-05    0.702743E-21
    0.884024E-01   -0.262056E-05    0.641852E-21
    0.884023E-01   -0.607466E-05    0.148786E-20
    0.884023E-01   -0.559224E-05    0.136970E-20
    0.884024E-01   -0.514381E-05    0.125987E-20
    0.884024E-01   -0.472735E-05    0.115787E-20
    0.884024E-01   -0.434089E-05    0.106321E-20
    0.884024E-01   -0.398257E-05    0.975447E-21
    0.884024E-01   -0.365060E-05    0.894140E-21
    0.884024E-01   -0.334331E-05    0.818876E-21
    0.884025E-01   -0.305910E-05    0.749265E-21
    0.884025E-01   -0.279647E-05    0.684938E-21
    0.884025E-01   -0.255401E-05    0.625552E-21
    0.884026E-01   -0.591015E-05    0.144757E-20
    0.884026E-01   -0.544046E-05    0.133253E-20
    0.884026E-01   -0.500391E-05    0.122560E-20
    0.884026E-01   -0.459849E-05    0.112630E-20
    0.884026E-01   -0.422230E-05    0.103416E-20
    0.884026E-01   -0.387352E-05    0.948738E-21
    0.884026E-01   -0.355042E-05    0.869602E-21
    0.884026E-01   -0.325136E-05    0.796353E-21
    0.884026E-01   -0.297478E-05    0.728612E-21
    0.884026E-01   -0.271923E-05    0.666019E-21
    0.884026E-01   -0.248332E-05    0.608239E-21
    0.884029E-01   -0.572933E-05    0.140328E-20
    0.884029E-01   -0.527370E-05    0.129169E-20
    0.884028E-01   -0.485025E-05    0.118797E-20
    0.884028E-01   -0.445701E-05    0.109165E-20
    0.884028E-01   -0.409215E-05    0.100229E-20
    0.884028E-01   -0.375389E-05    0.919438E-21
    0.884028E-01   -0.344056E-05    0.842694E-21
    0.884028E-01   -0.315056E-05    0.771665E-21
    0.884027E-01   -0.288240E-05    0.705983E-21
    0.884027E-01   -0.263463E-05    0.645299E-21
    0.884027E-01   -0.240594E-05    0.589285E-21
    0.884033E-01   -0.552658E-05    0.135362E-20
    0.884032E-01   -0.508678E-05    0.124590E-20
    0.884032E-01   -0.467805E-05    0.114579E-20
    0.884031E-01   -0.429851E-05    0.105283E-20
    0.884031E-01   -0.394638E-05    0.966584E-21
    0.884030E-01   -0.361994E-05    0.886631E-21
    0.884030E-01   -0.331759E-05    0.812575E-21
    0.884030E-01   -0.303778E-05    0.744041E-21
    0.884029E-01   -0.277905E-05    0.680671E-21
    0.884029E-01   -0.254003E-05    0.622129E-21
    0.884029E-01   -0.231942E-05    0.568095E-21
    0.884037E-01   -0.529764E-05    0.129755E-20
    0.884036E-01   -0.487574E-05    0.119421E-20
    0.884035E-01   -0.448368E-05    0.109818E-20
    0.884034E-01   -0.411964E-05    0.100902E-20
    0.884034E-01   -0.378190E-05    0.926300E-21
    0.884033E-01   -0.346884E-05    0.849622E-21
    0.884032E-01   -0.317890E-05    0.778607E-21
    0.884032E-01   -0.291060E-05    0.712892E-21
    0.884031E-01   -0.266255E-05    0.652136E-21
    0.884031E-01   -0.243341E-05    0.596013E-21
    0.884030E-01   -0.222193E-05    0.544216E-21
    0.884041E-01   -0.503935E-05    0.123428E-20
    0.884040E-01   -0.463768E-05    0.113590E-20
    0.884039E-01   -0.426444E-05    0.104449E-20
    0.884038E-01   -0.391790E-05    0.959609E-21
    0.884037E-01   -0.359644E-05    0.880873E-21
    0.884036E-01   -0.329848E-05    0.807895E-21
    0.884035E-01   -0.302256E-05    0.740314E-21
    0.884034E-01   -0.276726E-05    0.677784E-21
    0.884034E-01   -0.253125E-05    0.619977E-21
    0.884033E-01   -0.231325E-05    0.566584E-21
    0.884032E-01   -0.211208E-05    0.517310E-21
    0.884046E-01   -0.474865E-05    0.116308E-20
    0.884044E-01   -0.436977E-05    0.107029E-20
    0.884043E-01   -0.401773E-05    0.984060E-21
    0.884041E-01   -0.369091E-05    0.904012E-21
    0.884040E-01   -0.338776E-05    0.829762E-21
    0.884039E-01   -0.310682E-05    0.760951E-21
    0.884038E-01   -0.284668E-05    0.697236E-21
    0.884037E-01   -0.260602E-05    0.638291E-21
    0.884036E-01   -0.238356E-05    0.583804E-21
    0.884035E-01   -0.217811E-05    0.533483E-21
    0.884034E-01   -0.198852E-05    0.487048E-21
    0.884051E-01   -0.442143E-05    0.108294E-20
    0.884049E-01   -0.406819E-05    0.996419E-21
    0.884047E-01   -0.374001E-05    0.916039E-21
    0.884045E-01   -0.343538E-05    0.841425E-21
    0.884044E-01   -0.315285E-05    0.772225E-21
    0.884042E-01   -0.289105E-05    0.708104E-21
    0.884041E-01   -0.264869E-05    0.648742E-21
    0.884040E-01   -0.242451E-05    0.593833E-21
    0.884039E-01   -0.221730E-05    0.543083E-21
    0.884037E-01   -0.202596E-05    0.496217E-21
    0.884036E-01   -0.184942E-05    0.452978E-21
    0.884056E-01   -0.405167E-05    0.992373E-21
    0.884054E-01   -0.372736E-05    0.912939E-21
    0.884052E-01   -0.342611E-05    0.839156E-21
    0.884050E-01   -0.314654E-05    0.770680E-21
    0.884048E-01   -0.288730E-05    0.707185E-21
    0.884046E-01   -0.264712E-05    0.648358E-21
    0.884044E-01   -0.242480E-05    0.593905E-21
    0.884043E-01   -0.221919E-05    0.543544E-21
    0.884041E-01   -0.202919E-05    0.497009E-21
    0.884040E-01   -0.185379E-05    0.454048E-21
    0.884039E-01   -0.169200E-05    0.414421E-21
</DataArray>
</PointData>
<CellData>
<DataArray Name="DP" type="Float64" format="ascii" NumberOfComponents="1">
      0.000000E+0000
      0.000000E+0000
      0.000000E+0000
      0.000000E+0000
      0.000000E+0000
      0.000000E+0000
      0.000000E+0000
      0.000000E+0000
      0.000000E+0000
      0.000000E+0000
      0.000000E+0000
      0.000000E+0000
      0.000000E+0000
      0.000000E+0000
      0.000000E+0000
      0.000000E+0000
      0.000000E+0000
      0.000000E+0000
      0.000000E+0000
      0.000000E+0000
      0.000000E+0000
      0.000000E+0000
      0.000000E+0000
      0.000000E+0000
      0.000000E+0000
      0.000000E+0000
      0.000000E+0000
      0.000000E+0000
      0.000000E+0000
      0.000000E+0000
      0.000000E+0000
      0.000000E+0000
      0.000000E+0000
      0.000000E+0000
      0.000000E+0000
      0.000000E+0000
      0.000000E+0000
      0.000000E+0000
      0.000000E+0000
      0.000000E+0000
      0.000000E+0000
      0.000000E+0000
      0.000000E+0000
      0.000000E+0000
      0.000000E+0000
      0.000000E+0000
      0.000000E+0000
      0.000000E+0000
      0.000000E+0000
      0.000000E+0000
      0.000000E+0000
      0.000000E+0000
      0.000000E+0000
      0.000000E+0000
      0.000000E+0000
      0.000000E+0000
      0.000000E+0000
      0.000000E+0000
      0.000000E+0000
      0.000000E+0000
      0.000000E+0000
      0.000000E+0000
      0.000000E+0000
      0.000000E+0000
      0.000000E+0000
      0.000000E+0000
      0.000000E+0000
      0.000000E+0000
      0.000000E+0000
      0.000000E+0000
      0.000000E+0000
      0.000000E+0000
      0.000000E+0000
      0.000000E+0000
      0.000000E+0000
      0.000000E+0000
      0.000000E+0000
      0.000000E+0000
      0.000000E+0000
      0.000000E+0000
      0.000000E+0000
      0.000000E+0000
      0.000000E+0000
      0.000000E+0000
      0.000000E+0000
      0.000000E+0000
      0.000000E+0000
      0.000000E+0000
      0.000000E+0000
      0.000000E+0000
      0.000000E+0000
      0.000000E+0000
      0.000000E+0000
      0.000000E+0000
      0.000000E+0000
      0.000000E+0000
      0.000000E+0000
      0.000000E+0000
      0.000000E+0000
      0.000000E+0000
</DataArray>
<DataArray Name="P" type="Float64" format="ascii" NumberOfComponents="1">
     -0.377673E+0000
     -0.390695E+0000
     -0.403847E+0000
     -0.417130E+0000
     -0.430547E+0000
     -0.444097E+0000
     -0.457782E+0000
     -0.471604E+0000
     -0.485565E+0000
     -0.499664E+0000
     -0.377674E+0000
     -0.390696E+0000
     -0.403847E+0000
     -0.417131E+0000
     -0.430547E+0000
     -0.444097E+0000
     -0.457782E+0000
     -0.471604E+0000
     -0.485565E+0000
     -0.499664E+0000
     -0.377675E+0000
     -0.390696E+0000
     -0.403848E+0000
     -0.417131E+0000
     -0.430547E+0000
     -0.444097E+0000
     -0.457782E+0000
     -0.471604E+0000
     -0.485565E+0000
     -0.499664E+0000
     -0.377675E+0000
     -0.390696E+0000
     -0.403848E+0000
     -0.417131E+0000
     -0.430547E+0000
     -0.444097E+0000
     -0.457782E+0000
     -0.471604E+0000
     -0.485565E+0000
     -0.499664E+0000
     -0.377676E+0000
     -0.390697E+0000
     -0.403848E+0000
     -0.417131E+0000
     -0.430547E+0000
     -0.444097E+0000
     -0.457782E+0000
     -0.471604E+0000
     -0.485565E+0000
     -0.499664E+0000
     -0.377676E+0000
     -0.390697E+0000
     -0.403849E+0000
     -0.417132E+0000
     -0.430547E+0000
     -0.444097E+0000
     -0.457782E+0000
     -0.471604E+0000
     -0.485565E+0000
     -0.499664E+0000
     -0.377676E+0000
     -0.390698E+0000
     -0.403849E+0000
     -0.417132E+0000
     -0.430548E+0000
     -0.444097E+0000
     -0.457783E+0000
     -0.471604E+0000
     -0.485564E+0000
     -0.499664E+0000
     -0.377677E+0000
     -0.390698E+0000
     -0.403849E+0000
     -0.417132E+0000
     -0.430548E+0000
     -0.444098E+0000
     -0.457783E+0000
     -0.471604E+0000
     -0.485564E+0000
     -0.499664E+0000
     -0.377677E+0000
     -0.390698E+0000
     -0.403850E+0000
     -0.417132E+0000
     -0.430548E+0000
     -0.444098E+0000
     -0.457783E+0000
     -0.471604E+0000
     -0.485564E+0000
     -0.499664E+0000
     -0.377678E+0000
     -0.390699E+0000
     -0.403850E+0000
     -0.417133E+0000
     -0.430548E+0000
     -0.444098E+0000
     -0.457783E+0000
     -0.471604E+0000
     -0.485564E+0000
     -0.499664E+0000
</DataArray>
<DataArray Name="RHO" type="Float64" format="ascii" NumberOfComponents="1">
      0.117197E+0001
      0.117197E+0001
      0.117197E+0001
      0.117197E+0001
      0.117197E+0001
      0.117197E+0001
      0.117197E+0001
      0.117197E+0001
      0.117197E+0001
      0.117197E+0001
      0.117197E+0001
      0.117197E+0001
      0.117197E+0001
      0.117197E+0001
      0.117197E+0001
      0.117197E+0001
      0.117197E+0001
      0.117197E+0001
      0.117197E+0001
      0.117197E+0001
      0.117197E+0001
      0.117197E+0001
      0.117197E+0001
      0.117197E+0001
      0.117197E+0001
      0.117197E+0001
      0.117197E+0001
      0.117197E+0001
      0.117197E+0001
      0.117197E+0001
      0.117197E+0001
      0.117197E+0001
      0.117197E+0001
      0.117197E+0001
      0.117197E+0001
      0.117197E+0001
      0.117197E+0001
      0.117197E+0001
      0.117197E+0001
      0.117197E+0001
      0.117197E+0001
      0.117197E+0001
      0.117197E+0001
      0.117197E+0001
      0.117197E+0001
      0.117197E+0001
      0.117197E+0001
      0.117197E+0001
      0.117197E+0001
      0.117197E+0001
      0.117197E+0001
      0.117197E+0001
      0.117197E+0001
      0.117197E+0001
      0.117197E+0001
      0.117197E+0001
      0.117197E+0001
      0.117197E+0001
      0.117197E+0001
      0.117197E+0001
      0.117197E+0001
      0.117197E+0001