<?xml version="1.0"?>
<VTKFile type="StructuredGrid" version="0.1" byte_order="LittleEndian">
<StructuredGrid WholeExtent="           0          10          80          90           0           1">
<Piece Extent="           0          10          80          90           0           1">
<Points>
<DataArray NumberOfComponents="3" type="Float64" format="ascii">
    0.000000E+00    0.305691E-01    0.000000E+00
    0.253324E-03    0.305691E-01    0.000000E+00
    0.509182E-03    0.305691E-01    0.000000E+00
    0.767598E-03    0.305691E-01    0.000000E+00
    0.102860E-02    0.305691E-01    0.000000E+00
    0.129221E-02    0.305691E-01    0.000000E+00
    0.155845E-02    0.305691E-01    0.000000E+00
    0.182736E-02    0.305691E-01    0.000000E+00
    0.209896E-02    0.305691E-01    0.000000E+00
    0.237327E-02    0.305691E-01    0.000000E+00
    0.265033E-02    0.305691E-01    0.000000E+00
    0.000000E+00    0.314969E-01    0.000000E+00
    0.253324E-03    0.314969E-01    0.000000E+00
    0.509182E-03    0.314969E-01    0.000000E+00
    0.767598E-03    0.314969E-01    0.000000E+00
    0.102860E-02    0.314969E-01    0.000000E+00
    0.129221E-02    0.314969E-01    0.000000E+00
    0.155845E-02    0.314969E-01    0.000000E+00
    0.182736E-02    0.314969E-01    0.000000E+00
    0.209896E-02    0.314969E-01    0.000000E+00
    0.237327E-02    0.314969E-01    0.000000E+00
    0.265033E-02    0.314969E-01    0.000000E+00
    0.000000E+00    0.324526E-01    0.000000E+00
    0.253324E-03    0.324526E-01    0.000000E+00
    0.509182E-03    0.324526E-01    0.000000E+00
    0.767598E-03    0.324526E-01    0.000000E+00
    0.102860E-02    0.324526E-01    0.000000E+00
    0.129221E-02    0.324526E-01    0.000000E+00
    0.155845E-02    0.324526E-01    0.000000E+00
    0.182736E-02    0.324526E-01    0.000000E+00
    0.209896E-02    0.324526E-01    0.000000E+00
    0.237327E-02    0.324526E-01    0.000000E+00
    0.265033E-02    0.324526E-01    0.000000E+00
    0.000000E+00    0.334369E-01    0.000000E+00
    0.253324E-03    0.334369E-01    0.000000E+00
    0.509182E-03    0.334369E-01    0.000000E+00
    0.767598E-03    0.334369E-01    0.000000E+00
    0.102860E-02    0.334369E-01    0.000000E+00
    0.129221E-02    0.334369E-01    0.000000E+00
    0.155845E-02    0.334369E-01    0.000000E+00
    0.182736E-02    0.334369E-01    0.000000E+00
    0.209896E-02    0.334369E-01    0.000000E+00
    0.237327E-02    0.334369E-01    0.000000E+00
    0.265033E-02    0.334369E-01    0.000000E+00
    0.000000E+00    0.344508E-01    0.000000E+00
    0.253324E-03    0.344508E-01    0.000000E+00
    0.509182E-03    0.344508E-01    0.000000E+00
    0.767598E-03    0.344508E-01    0.000000E+00
    0.102860E-02    0.344508E-01    0.000000E+00
    0.129221E-02    0.344508E-01    0.000000E+00
    0.155845E-02    0.344508E-01    0.000000E+00
    0.182736E-02    0.344508E-01    0.000000E+00
    0.209896E-02    0.344508E-01    0.000000E+00
    0.237327E-02    0.344508E-01    0.000000E+00
    0.265033E-02    0.344508E-01    0.000000E+00
    0.000000E+00    0.354950E-01    0.000000E+00
    0.253324E-03    0.354950E-01    0.000000E+00
    0.509182E-03    0.354950E-01    0.000000E+00
    0.767598E-03    0.354950E-01    0.000000E+00
    0.102860E-02    0.354950E-01    0.000000E+00
    0.129221E-02    0.354950E-01    0.000000E+00
    0.155845E-02    0.354950E-01    0.000000E+00
    0.182736E-02    0.354950E-01    0.000000E+00
    0.209896E-02    0.354950E-01    0.000000E+00
    0.237327E-02    0.354950E-01    0.000000E+00
    0.265033E-02    0.354950E-01    0.000000E+00
    0.000000E+00    0.365706E-01    0.000000E+00
    0.253324E-03    0.365706E-01    0.000000E+00
    0.509182E-03    0.365706E-01    0.000000E+00
    0.767598E-03    0.365706E-01    0.000000E+00
    0.102860E-02    0.365706E-01    0.000000E+00
    0.129221E-02    0.365706E-01    0.000000E+00
    0.155845E-02    0.365706E-01    0.000000E+00
    0.182736E-02    0.365706E-01    0.000000E+00
    0.209896E-02    0.365706E-01    0.000000E+00
    0.237327E-02    0.365706E-01    0.000000E+00
    0.265033E-02    0.365706E-01    0.000000E+00
    0.000000E+00    0.376785E-01    0.000000E+00
    0.253324E-03    0.376785E-01    0.000000E+00
    0.509182E-03    0.376785E-01    0.000000E+00
    0.767598E-03    0.376785E-01    0.000000E+00
    0.102860E-02    0.376785E-01    0.000000E+00
    0.129221E-02    0.376785E-01    0.000000E+00
    0.155845E-02    0.376785E-01    0.000000E+00
    0.182736E-02    0.376785E-01    0.000000E+00
    0.209896E-02    0.376785E-01    0.000000E+00
    0.237327E-02    0.376785E-01    0.000000E+00
    0.265033E-02    0.376785E-01    0.000000E+00
    0.000000E+00    0.388196E-01    0.000000E+00
    0.253324E-03    0.388196E-01    0.000000E+00
    0.509182E-03    0.388196E-01    0.000000E+00
    0.767598E-03    0.388196E-01    0.000000E+00
    0.102860E-02    0.388196E-01    0.000000E+00
    0.129221E-02    0.388196E-01    0.000000E+00
    0.155845E-02    0.388196E-01    0.000000E+00
    0.182736E-02    0.388196E-01    0.000000E+00
    0.209896E-02    0.388196E-01    0.000000E+00
    0.237327E-02    0.388196E-01    0.000000E+00
    0.265033E-02    0.388196E-01    0.000000E+00
    0.000000E+00    0.399949E-01    0.000000E+00
    0.253324E-03    0.399949E-01    0.000000E+00
    0.509182E-03    0.399949E-01    0.000000E+00
    0.767598E-03    0.399949E-01    0.000000E+00
    0.102860E-02    0.399949E-01    0.000000E+00
    0.129221E-02    0.399949E-01    0.000000E+00
    0.155845E-02    0.399949E-01    0.000000E+00
    0.182736E-02    0.399949E-01    0.000000E+00
    0.209896E-02    0.399949E-01    0.000000E+00
    0.237327E-02    0.399949E-01    0.000000E+00
    0.265033E-02    0.399949E-01    0.000000E+00
    0.000000E+00    0.412055E-01    0.000000E+00
    0.253324E-03    0.412055E-01    0.000000E+00
    0.509182E-03    0.412055E-01    0.000000E+00
    0.767598E-03    0.412055E-01    0.000000E+00
    0.102860E-02    0.412055E-01    0.000000E+00
    0.129221E-02    0.412055E-01    0.000000E+00
    0.155845E-02    0.412055E-01    0.000000E+00
    0.182736E-02    0.412055E-01    0.000000E+00
    0.209896E-02    0.412055E-01    0.000000E+00
    0.237327E-02    0.412055E-01    0.000000E+00
    0.265033E-02    0.412055E-01    0.000000E+00
    0.000000E+00    0.305691E-01    0.160000E-02
    0.253324E-03    0.305691E-01    0.160000E-02
    0.509182E-03    0.305691E-01    0.160000E-02
    0.767598E-03    0.305691E-01    0.160000E-02
    0.102860E-02    0.305691E-01    0.160000E-02
    0.129221E-02    0.305691E-01    0.160000E-02
    0.155845E-02    0.305691E-01    0.160000E-02
    0.182736E-02    0.305691E-01    0.160000E-02
    0.209896E-02    0.305691E-01    0.160000E-02
    0.237327E-02    0.305691E-01    0.160000E-02
    0.265033E-02    0.305691E-01    0.160000E-02
    0.000000E+00    0.314969E-01    0.160000E-02
    0.253324E-03    0.314969E-01    0.160000E-02
    0.509182E-03    0.314969E-01    0.160000E-02
    0.767598E-03    0.314969E-01    0.160000E-02
    0.102860E-02    0.314969E-01    0.160000E-02
    0.129221E-02    0.314969E-01    0.160000E-02
    0.155845E-02    0.314969E-01    0.160000E-02
    0.182736E-02    0.314969E-01    0.160000E-02
    0.209896E-02    0.314969E-01    0.160000E-02
    0.237327E-02    0.314969E-01    0.160000E-02
    0.265033E-02    0.314969E-01    0.160000E-02
    0.000000E+00    0.324526E-01    0.160000E-02
    0.253324E-03    0.324526E-01    0.160000E-02
    0.509182E-03    0.324526E-01    0.160000E-02
    0.767598E-03    0.324526E-01    0.160000E-02
    0.102860E-02    0.324526E-01    0.160000E-02
    0.129221E-02    0.324526E-01    0.160000E-02
    0.155845E-02    0.324526E-01    0.160000E-02
    0.182736E-02    0.324526E-01    0.160000E-02
    0.209896E-02    0.324526E-01    0.160000E-02
    0.237327E-02    0.324526E-01    0.160000E-02
    0.265033E-02    0.324526E-01    0.160000E-02
    0.000000E+00    0.334369E-01    0.160000E-02
    0.253324E-03    0.334369E-01    0.160000E-02
    0.509182E-03    0.334369E-01    0.160000E-02
    0.767598E-03    0.334369E-01    0.160000E-02
    0.102860E-02    0.334369E-01    0.160000E-02
    0.129221E-02    0.334369E-01    0.160000E-02
    0.155845E-02    0.334369E-01    0.160000E-02
    0.182736E-02    0.334369E-01    0.160000E-02
    0.209896E-02    0.334369E-01    0.160000E-02
    0.237327E-02    0.334369E-01    0.160000E-02
    0.265033E-02    0.334369E-01    0.160000E-02
    0.000000E+00    0.344508E-01    0.160000E-02
    0.253324E-03    0.344508E-01    0.160000E-02
    0.509182E-03    0.344508E-01    0.160000E-02
    0.767598E-03    0.344508E-01    0.160000E-02
    0.102860E-02    0.344508E-01    0.160000E-02
    0.129221E-02    0.344508E-01    0.160000E-02
    0.155845E-02    0.344508E-01    0.160000E-02
    0.182736E-02    0.344508E-01    0.160000E-02
    0.209896E-02    0.344508E-01    0.160000E-02
    0.237327E-02    0.344508E-01    0.160000E-02
    0.265033E-02    0.344508E-01    0.160000E-02
    0.000000E+00    0.354950E-01    0.160000E-02
    0.253324E-03    0.354950E-01    0.160000E-02
    0.509182E-03    0.354950E-01    0.160000E-02
    0.767598E-03    0.354950E-01    0.160000E-02
    0.102860E-02    0.354950E-01    0.160000E-02
    0.129221E-02    0.354950E-01    0.160000E-02
    0.155845E-02    0.354950E-01    0.160000E-02
    0.182736E-02    0.354950E-01    0.160000E-02
    0.209896E-02    0.354950E-01    0.160000E-02
    0.237327E-02    0.354950E-01    0.160000E-02
    0.265033E-02    0.354950E-01    0.160000E-02
    0.000000E+00    0.365706E-01    0.160000E-02
    0.253324E-03    0.365706E-01    0.160000E-02
    0.509182E-03    0.365706E-01    0.160000E-02
    0.767598E-03    0.365706E-01    0.160000E-02
    0.102860E-02    0.365706E-01    0.160000E-02
    0.129221E-02    0.365706E-01    0.160000E-02
    0.155845E-02    0.365706E-01    0.160000E-02
    0.182736E-02    0.365706E-01    0.160000E-02
    0.209896E-02    0.365706E-01    0.160000E-02
    0.237327E-02    0.365706E-01    0.160000E-02
    0.265033E-02    0.365706E-01    0.160000E-02
    0.000000E+00    0.376785E-01    0.160000E-02
    0.253324E-03    0.376785E-01    0.160000E-02
    0.509182E-03    0.376785E-01    0.160000E-02
    0.767598E-03    0.376785E-01    0.160000E-02
    0.102860E-02    0.376785E-01    0.160000E-02
    0.129221E-02    0.376785E-01    0.160000E-02
    0.155845E-02    0.376785E-01    0.160000E-02
    0.182736E-02    0.376785E-01    0.160000E-02
    0.209896E-02    0.376785E-01    0.160000E-02
    0.237327E-02    0.376785E-01    0.160000E-02
    0.265033E-02    0.376785E-01    0.160000E-02
    0.000000E+00    0.388196E-01    0.160000E-02
    0.253324E-03    0.388196E-01    0.160000E-02
    0.509182E-03    0.388196E-01    0.160000E-02
    0.767598E-03    0.388196E-01    0.160000E-02
    0.102860E-02    0.388196E-01    0.160000E-02
    0.129221E-02    0.388196E-01    0.160000E-02
    0.155845E-02    0.388196E-01    0.160000E-02
    0.182736E-02    0.388196E-01    0.160000E-02
    0.209896E-02    0.388196E-01    0.160000E-02
    0.237327E-02    0.388196E-01    0.160000E-02
    0.265033E-02    0.388196E-01    0.160000E-02
    0.000000E+00    0.399949E-01    0.160000E-02
    0.253324E-03    0.399949E-01    0.160000E-02
    0.509182E-03    0.399949E-01    0.160000E-02
    0.767598E-03    0.399949E-01    0.160000E-02
    0.102860E-02    0.399949E-01    0.160000E-02
    0.129221E-02    0.399949E-01    0.160000E-02
    0.155845E-02    0.399949E-01    0.160000E-02
    0.182736E-02    0.399949E-01    0.160000E-02
    0.209896E-02    0.399949E-01    0.160000E-02
    0.237327E-02    0.399949E-01    0.160000E-02
    0.265033E-02    0.399949E-01    0.160000E-02
    0.000000E+00    0.412055E-01    0.160000E-02
    0.253324E-03    0.412055E-01    0.160000E-02
    0.509182E-03    0.412055E-01    0.160000E-02
    0.767598E-03    0.412055E-01    0.160000E-02
    0.102860E-02    0.412055E-01    0.160000E-02
    0.129221E-02    0.412055E-01    0.160000E-02
    0.155845E-02    0.412055E-01    0.160000E-02
    0.182736E-02    0.412055E-01    0.160000E-02
    0.209896E-02    0.412055E-01    0.160000E-02
    0.237327E-02    0.412055E-01    0.160000E-02
    0.265033E-02    0.412055E-01    0.160000E-02
</DataArray>
</Points>
<PointData>
<DataArray Name="Velocity" type="Float64" format="ascii" NumberOfComponents="3">
    0.890000E-01   -0.180686E-05    0.000000E+00
    0.889997E-01   -0.138742E-04    0.000000E+00
    0.889989E-01   -0.268626E-04    0.000000E+00
    0.889976E-01   -0.391807E-04    0.000000E+00
    0.889960E-01   -0.509471E-04    0.000000E+00
    0.889941E-01   -0.622246E-04    0.000000E+00
    0.889919E-01   -0.730446E-04    0.000000E+00
    0.889895E-01   -0.834211E-04    0.000000E+00
    0.889868E-01   -0.933579E-04    0.000000E+00
    0.889838E-01   -0.102853E-03    0.000000E+00
    0.889806E-01   -0.111902E-03    0.000000E+00
    0.890000E-01   -0.131720E-05    0.000000E+00
    0.889997E-01   -0.105940E-04    0.000000E+00
    0.889991E-01   -0.213011E-04    0.000000E+00
    0.889980E-01   -0.319422E-04    0.000000E+00
    0.889967E-01   -0.423948E-04    0.000000E+00
    0.889950E-01   -0.525765E-04    0.000000E+00
    0.889931E-01   -0.624326E-04    0.000000E+00
    0.889910E-01   -0.719268E-04    0.000000E+00
    0.889886E-01   -0.810346E-04    0.000000E+00
    0.889860E-01   -0.897392E-04    0.000000E+00
    0.889831E-01   -0.980286E-04    0.000000E+00
    0.890000E-01   -0.125244E-05    0.000000E+00
    0.889999E-01   -0.981837E-05    0.000000E+00
    0.889997E-01   -0.193622E-04    0.000000E+00
    0.889992E-01   -0.286666E-04    0.000000E+00
    0.889985E-01   -0.377313E-04    0.000000E+00
    0.889974E-01   -0.465413E-04    0.000000E+00
    0.889962E-01   -0.550775E-04    0.000000E+00
    0.889946E-01   -0.633208E-04    0.000000E+00
    0.889928E-01   -0.712535E-04    0.000000E+00
    0.889908E-01   -0.788600E-04    0.000000E+00
    0.889885E-01   -0.861268E-04    0.000000E+00
    0.890000E-01   -0.112804E-05    0.000000E+00
    0.889999E-01   -0.882682E-05    0.000000E+00
    0.889996E-01   -0.173667E-04    0.000000E+00
    0.889992E-01   -0.256454E-04    0.000000E+00
    0.889985E-01   -0.336675E-04    0.000000E+00
    0.889976E-01   -0.414294E-04    0.000000E+00
    0.889965E-01   -0.489242E-04    0.000000E+00
    0.889952E-01   -0.561441E-04    0.000000E+00
    0.889937E-01   -0.630811E-04    0.000000E+00
    0.889920E-01   -0.697271E-04    0.000000E+00
    0.889901E-01   -0.760743E-04    0.000000E+00
    0.890000E-01   -0.100250E-05    0.000000E+00
    0.889999E-01   -0.784100E-05    0.000000E+00
    0.889996E-01   -0.154195E-04    0.000000E+00
    0.889992E-01   -0.227568E-04    0.000000E+00
    0.889986E-01   -0.298554E-04    0.000000E+00
    0.889978E-01   -0.367117E-04    0.000000E+00
    0.889968E-01   -0.433208E-04    0.000000E+00
    0.889957E-01   -0.496774E-04    0.000000E+00
    0.889944E-01   -0.557764E-04    0.000000E+00
    0.889929E-01   -0.616129E-04    0.000000E+00
    0.889912E-01   -0.671824E-04    0.000000E+00
    0.890000E-01   -0.886164E-06    0.000000E+00
    0.889999E-01   -0.692814E-05    0.000000E+00
    0.889997E-01   -0.136197E-04    0.000000E+00
    0.889993E-01   -0.200949E-04    0.000000E+00
    0.889987E-01   -0.263557E-04    0.000000E+00
    0.889980E-01   -0.323988E-04    0.000000E+00
    0.889972E-01   -0.382198E-04    0.000000E+00
    0.889961E-01   -0.438145E-04    0.000000E+00
    0.889950E-01   -0.491790E-04    0.000000E+00
    0.889937E-01   -0.543101E-04    0.000000E+00
    0.889922E-01   -0.592044E-04    0.000000E+00
    0.890000E-01   -0.780504E-06    0.000000E+00
    0.889999E-01   -0.609939E-05    0.000000E+00
    0.889997E-01   -0.119867E-04    0.000000E+00
    0.889994E-01   -0.176816E-04    0.000000E+00
    0.889989E-01   -0.231861E-04    0.000000E+00
    0.889982E-01   -0.284974E-04    0.000000E+00
    0.889975E-01   -0.336117E-04    0.000000E+00
    0.889966E-01   -0.385257E-04    0.000000E+00
    0.889956E-01   -0.432362E-04    0.000000E+00
    0.889944E-01   -0.477410E-04    0.000000E+00
    0.889931E-01   -0.520378E-04    0.000000E+00
    0.890000E-01   -0.685318E-06    0.000000E+00
    0.889999E-01   -0.535315E-05    0.000000E+00
    0.889998E-01   -0.105169E-04    0.000000E+00
    0.889994E-01   -0.155101E-04    0.000000E+00
    0.889990E-01   -0.203349E-04    0.000000E+00
    0.889985E-01   -0.249889E-04    0.000000E+00
    0.889978E-01   -0.294690E-04    0.000000E+00
    0.889970E-01   -0.337723E-04    0.000000E+00
    0.889961E-01   -0.378966E-04    0.000000E+00
    0.889951E-01   -0.418403E-04    0.000000E+00
    0.889940E-01   -0.456022E-04    0.000000E+00
    0.890000E-01   -0.600288E-06    0.000000E+00
    0.889999E-01   -0.468682E-05    0.000000E+00
    0.889998E-01   -0.920449E-05    0.000000E+00
    0.889995E-01   -0.135707E-04    0.000000E+00
    0.889992E-01   -0.177870E-04    0.000000E+00
    0.889987E-01   -0.218513E-04    0.000000E+00
    0.889981E-01   -0.257611E-04    0.000000E+00
    0.889974E-01   -0.295142E-04    0.000000E+00
    0.889966E-01   -0.331091E-04    0.000000E+00
    0.889957E-01   -0.365448E-04    0.000000E+00
    0.889947E-01   -0.398212E-04    0.000000E+00
    0.890000E-01   -0.526642E-06    0.000000E+00
    0.890000E-01   -0.410849E-05    0.000000E+00
    0.889998E-01   -0.806130E-05    0.000000E+00
    0.889996E-01   -0.118729E-04    0.000000E+00
    0.889993E-01   -0.155448E-04    0.000000E+00
    0.889989E-01   -0.190760E-04    0.000000E+00
    0.889984E-01   -0.224655E-04    0.000000E+00
    0.889978E-01   -0.257131E-04    0.000000E+00
    0.889971E-01   -0.288188E-04    0.000000E+00
    0.889963E-01   -0.317834E-04    0.000000E+00
    0.889954E-01   -0.346077E-04    0.000000E+00
    0.890000E-01   -0.477167E-06    0.000000E+00
    0.889999E-01   -0.367730E-05    0.000000E+00
    0.889998E-01   -0.714106E-05    0.000000E+00
    0.889995E-01   -0.104349E-04    0.000000E+00
    0.889991E-01   -0.135798E-04    0.000000E+00
    0.889987E-01   -0.165879E-04    0.000000E+00
    0.889981E-01   -0.194667E-04    0.000000E+00
    0.889975E-01   -0.222209E-04    0.000000E+00
    0.889968E-01   -0.248536E-04    0.000000E+00
    0.889961E-01   -0.273672E-04    0.000000E+00
    0.889952E-01   -0.297630E-04    0.000000E+00
    0.890000E-01    0.000000E+00    0.000000E+00
    0.889997E-01   -0.138742E-04    0.339821E-20
    0.889990E-01   -0.268626E-04    0.657945E-20
    0.889979E-01   -0.391807E-04    0.959651E-20
    0.889964E-01   -0.509471E-04    0.124785E-19
    0.889946E-01   -0.622246E-04    0.152406E-19
    0.889925E-01   -0.730446E-04    0.178908E-19
    0.889900E-01   -0.834211E-04    0.204323E-19
    0.889873E-01   -0.933579E-04    0.228661E-19
    0.889844E-01   -0.102853E-03    0.251918E-19
    0.889811E-01   -0.111902E-03    0.274082E-19
    0.890000E-01    0.000000E+00    0.000000E+00
    0.889997E-01   -0.105940E-04    0.259479E-20
    0.889991E-01   -0.213011E-04    0.521726E-20
    0.889980E-01   -0.319422E-04    0.782359E-20
    0.889967E-01   -0.423948E-04    0.103837E-19
    0.889950E-01   -0.525765E-04    0.128775E-19
    0.889931E-01   -0.624326E-04    0.152916E-19
    0.889910E-01   -0.719268E-04    0.176170E-19
    0.889886E-01   -0.810346E-04    0.198477E-19
    0.889860E-01   -0.897392E-04    0.219798E-19
    0.889831E-01   -0.980286E-04    0.240101E-19
    0.890000E-01    0.000000E+00    0.000000E+00
    0.889999E-01   -0.981837E-05    0.240481E-20
    0.889997E-01   -0.193622E-04    0.474236E-20
    0.889992E-01   -0.286666E-04    0.702130E-20
    0.889985E-01   -0.377313E-04    0.924149E-20
    0.889974E-01   -0.465413E-04    0.113993E-19
    0.889962E-01   -0.550775E-04    0.134901E-19
    0.889946E-01   -0.633208E-04    0.155091E-19
    0.889928E-01   -0.712535E-04    0.174521E-19
    0.889908E-01   -0.788600E-04    0.193151E-19
    0.889885E-01   -0.861268E-04    0.210950E-19
    0.890000E-01    0.000000E+00    0.000000E+00
    0.889999E-01   -0.882682E-05    0.216195E-20
    0.889996E-01   -0.173667E-04    0.425362E-20
    0.889992E-01   -0.256454E-04    0.628131E-20
    0.889985E-01   -0.336675E-04    0.824616E-20
    0.889976E-01   -0.414294E-04    0.101473E-19
    0.889965E-01   -0.489242E-04    0.119830E-19
    0.889952E-01   -0.561441E-04    0.137513E-19
    0.889937E-01   -0.630811E-04    0.154504E-19
    0.889920E-01   -0.697271E-04    0.170782E-19
    0.889901E-01   -0.760743E-04    0.186328E-19
    0.890000E-01    0.000000E+00    0.000000E+00
    0.889999E-01   -0.784100E-05    0.192049E-20
    0.889996E-01   -0.154195E-04    0.377669E-20
    0.889992E-01   -0.227568E-04    0.557381E-20
    0.889986E-01   -0.298554E-04    0.731245E-20
    0.889978E-01   -0.367117E-04    0.899178E-20
    0.889968E-01   -0.433208E-04    0.106105E-19
    0.889957E-01   -0.496774E-04    0.121675E-19
    0.889944E-01   -0.557764E-04    0.136613E-19
    0.889929E-01   -0.616129E-04    0.150908E-19
    0.889912E-01   -0.671824E-04    0.164549E-19
    0.890000E-01    0.000000E+00    0.000000E+00
    0.889999E-01   -0.692814E-05    0.169690E-20
    0.889997E-01   -0.136197E-04    0.333587E-20
    0.889993E-01   -0.200949E-04    0.492183E-20
    0.889987E-01   -0.263557E-04    0.645527E-20
    0.889980E-01   -0.323988E-04    0.793541E-20
    0.889972E-01   -0.382198E-04    0.936116E-20
    0.889961E-01   -0.438145E-04    0.107315E-19
    0.889950E-01   -0.491790E-04    0.120454E-19
    0.889937E-01   -0.543101E-04    0.133021E-19
    0.889922E-01   -0.592044E-04    0.145009E-19
    0.890000E-01    0.000000E+00    0.000000E+00
    0.889999E-01   -0.609939E-05    0.149392E-20
    0.889997E-01   -0.119867E-04    0.293590E-20
    0.889994E-01   -0.176816E-04    0.433075E-20
    0.889989E-01   -0.231861E-04    0.567895E-20
    0.889982E-01   -0.284974E-04    0.697985E-20
    0.889975E-01   -0.336117E-04    0.823250E-20
    0.889966E-01   -0.385257E-04    0.943607E-20
    0.889956E-01   -0.432362E-04    0.105898E-19
    0.889944E-01   -0.477410E-04    0.116932E-19
    0.889931E-01   -0.520378E-04    0.127456E-19
    0.890000E-01    0.000000E+00    0.000000E+00
    0.889999E-01   -0.535315E-05    0.131114E-20
    0.889998E-01   -0.105169E-04    0.257589E-20
    0.889994E-01   -0.155101E-04    0.379887E-20
    0.889990E-01   -0.203349E-04    0.498060E-20
    0.889985E-01   -0.249889E-04    0.612051E-20
    0.889978E-01   -0.294690E-04    0.721782E-20
    0.889970E-01   -0.337723E-04    0.827183E-20
    0.889961E-01   -0.378966E-04    0.928200E-20
    0.889951E-01   -0.418403E-04    0.102479E-19
    0.889940E-01   -0.456022E-04    0.111693E-19
    0.890000E-01    0.000000E+00    0.000000E+00
    0.889999E-01   -0.468682E-05    0.114794E-20
    0.889998E-01   -0.920449E-05    0.225445E-20
    0.889995E-01   -0.135707E-04    0.332385E-20
    0.889992E-01   -0.177870E-04    0.435655E-20
    0.889987E-01   -0.218513E-04    0.535204E-20
    0.889981E-01   -0.257611E-04    0.630966E-20
    0.889974E-01   -0.295142E-04    0.722890E-20
    0.889966E-01   -0.331091E-04    0.810938E-20
    0.889957E-01   -0.365448E-04    0.895091E-20
    0.889947E-01   -0.398212E-04    0.975338E-20
    0.890000E-01    0.000000E+00    0.000000E+00
    0.890000E-01   -0.410849E-05    0.100629E-20
    0.889998E-01   -0.806130E-05    0.197445E-20
    0.889996E-01   -0.118729E-04    0.290803E-20
    0.889993E-01   -0.155448E-04    0.380738E-20
    0.889989E-01   -0.190760E-04    0.467227E-20
    0.889984E-01   -0.224655E-04    0.550247E-20
    0.889978E-01   -0.257131E-04    0.629788E-20
    0.889971E-01   -0.288188E-04    0.705857E-20
    0.889963E-01   -0.317834E-04    0.778468E-20
    0.889954E-01   -0.346077E-04    0.847644E-20
    0.890000E-01    0.000000E+00    0.000000E+00
    0.889999E-01   -0.367730E-05    0.900679E-21
    0.889998E-01   -0.714106E-05    0.174906E-20
    0.889995E-01   -0.104349E-04    0.255581E-20
    0.889991E-01   -0.135798E-04    0.332609E-20
    0.889987E-01   -0.165879E-04    0.406287E-20
    0.889981E-01   -0.194667E-04    0.476796E-20
    0.889975E-01   -0.222209E-04    0.544254E-20
    0.889968E-01   -0.248536E-04    0.608738E-20
    0.889961E-01   -0.273672E-04    0.670302E-20
    0.889952E-01   -0.297630E-04    0.728983E-20
</DataArray>
</PointData>
<CellData>
<DataArray Name="DP" type="Float64" format="ascii" NumberOfComponents="1">
      0.000000E+0000
      0.000000E+0000
      0.000000E+0000
      0.000000E+0000
      0.000000E+0000
      0.000000E+0000
      0.000000E+0000
      0.000000E+0000
      0.000000E+0000
      0.000000E+0000
      0.000000E+0000
      0.000000E+0000
      0.000000E+0000
      0.000000E+0000
      0.000000E+0000
      0.000000E+0000
      0.000000E+0000
      0.000000E+0000
      0.000000E+0000
      0.000000E+0000
      0.000000E+0000
      0.000000E+0000
      0.000000E+0000
      0.000000E+0000
      0.000000E+0000
      0.000000E+0000
      0.000000E+0000
      0.000000E+0000
      0.000000E+0000
      0.000000E+0000
      0.000000E+0000
      0.000000E+0000
      0.000000E+0000
      0.000000E+0000
      0.000000E+0000
      0.000000E+0000
      0.000000E+0000
      0.000000E+0000
      0.000000E+0000
      0.000000E+0000
      0.000000E+0000
      0.000000E+0000
      0.000000E+0000
      0.000000E+0000
      0.000000E+0000
      0.000000E+0000
      0.000000E+0000
      0.000000E+0000
      0.000000E+0000
      0.000000E+0000
      0.000000E+0000
      0.000000E+0000
      0.000000E+0000
      0.000000E+0000
      0.000000E+0000
      0.000000E+0000
      0.000000E+0000
      0.000000E+0000
      0.000000E+0000
      0.000000E+0000
      0.000000E+0000
      0.000000E+0000
      0.000000E+0000
      0.000000E+0000
      0.000000E+0000
      0.000000E+0000
      0.000000E+0000
      0.000000E+0000
      0.000000E+0000
      0.000000E+0000
      0.000000E+0000
      0.000000E+0000
      0.000000E+0000
      0.000000E+0000
      0.000000E+0000
      0.000000E+0000
      0.000000E+0000
      0.000000E+0000
      0.000000E+0000
      0.000000E+0000
      0.000000E+0000
      0.000000E+0000
      0.000000E+0000
      0.000000E+0000
      0.000000E+0000
      0.000000E+0000
      0.000000E+0000
      0.000000E+0000
      0.000000E+0000
      0.000000E+0000
      0.000000E+0000
      0.000000E+0000
      0.000000E+0000
      0.000000E+0000
      0.000000E+0000
      0.000000E+0000
      0.000000E+0000
      0.000000E+0000
      0.000000E+0000
      0.000000E+0000
</DataArray>
<DataArray Name="P" type="Float64" format="ascii" NumberOfComponents="1">
      0.631588E+0000
      0.628660E+0000
      0.625704E+0000
      0.622718E+0000
      0.619702E+0000
      0.616656E+0000
      0.613580E+0000
      0.610473E+0000
      0.607335E+0000
      0.604166E+0000
      0.631592E+0000
      0.628665E+0000
      0.625708E+0000
      0.622723E+0000
      0.619707E+0000
      0.616661E+0000
      0.613585E+0000
      0.610478E+0000
      0.607340E+0000
      0.604171E+0000
      0.631596E+0000
      0.628669E+0000
      0.625713E+0000
      0.622727E+0000
      0.619711E+0000
      0.616665E+0000
      0.613589E+0000
      0.610482E+0000
      0.607344E+0000
      0.604175E+0000
      0.631600E+0000
      0.628673E+0000
      0.625717E+0000
      0.622731E+0000
      0.619715E+0000
      0.616669E+0000
      0.613593E+0000
      0.610486E+0000
      0.607348E+0000
      0.604179E+0000
      0.631603E+0000
      0.628676E+0000
      0.625720E+0000
      0.622734E+0000
      0.619719E+0000
      0.616673E+0000
      0.613597E+0000
      0.610490E+0000
      0.607352E+0000
      0.604182E+0000
      0.631607E+0000
      0.628680E+0000
      0.625723E+0000
      0.622738E+0000
      0.619722E+0000
      0.616676E+0000
      0.613600E+0000
      0.610493E+0000
      0.607355E+0000
      0.604185E+0000
      0.631610E+0000
      0.628683E+0000
      0.625726E+0000
      0.622741E+0000
      0.619725E+0000
      0.616679E+0000
      0.613603E+0000
      0.610496E+0000
      0.607358E+0000
      0.604188E+0000
      0.631612E+0000
      0.628685E+0000
      0.625729E+0000
      0.622743E+0000
      0.619728E+0000
      0.616682E+0000
      0.613605E+0000
      0.610498E+0000
      0.607360E+0000
      0.604191E+0000
      0.631615E+0000
      0.628688E+0000
      0.625731E+0000
      0.622746E+0000
      0.619730E+0000
      0.616684E+0000
      0.613608E+0000
      0.610501E+0000
      0.607363E+0000
      0.604193E+0000
      0.631617E+0000
      0.628690E+0000
      0.625734E+0000
      0.622748E+0000
      0.619732E+0000
      0.616686E+0000
      0.613610E+0000
      0.610503E+0000
      0.607365E+0000
      0.604195E+0000
</DataArray>
<DataArray Name="RHO" type="Float64" format="ascii" NumberOfComponents="1">
      0.117197E+0001
      0.117197E+0001
      0.117197E+0001
      0.117197E+0001
      0.117197E+0001
      0.117197E+0001
      0.117197E+0001
      0.117197E+0001
      0.117197E+0001
      0.117197E+0001
      0.117197E+0001
      0.117197E+0001
      0.117197E+0001
      0.117197E+0001
      0.117197E+0001
      0.117197E+0001
      0.117197E+0001
      0.117197E+0001
      0.117197E+0001
      0.117197E+0001
      0.117197E+0001
      0.117197E+0001
      0.117197E+0001
      0.117197E+0001
      0.117197E+0001
      0.117197E+0001
      0.117197E+0001
      0.117197E+0001
      0.117197E+0001
      0.117197E+0001
      0.117197E+0001
      0.117197E+0001
      0.117197E+0001
      0.117197E+0001
      0.117197E+0001
      0.117197E+0001
      0.117197E+0001
      0.117197E+0001
      0.117197E+0001
      0.117197E+0001
      0.117197E+0001
      0.117197E+0001
      0.117197E+0001
      0.117197E+0001
      0.117197E+0001
      0.117197E+0001
      0.117197E+0001
      0.117197E+0001
      0.117197E+0001
      0.117197E+0001
      0.117197E+0001
      0.117197E+0001
      0.117197E+0001
      0.117197E+0001
      0.117197E+0001
      0.117197E+0001
      0.117197E+0001
      0.117197E+0001
      0.117197E+0001
      0.117197E+0001
      0.117197E+0001
      0.117197E+0001