<?xml version="1.0"?>
<VTKFile type="StructuredGrid" version="0.1" byte_order="LittleEndian">
<StructuredGrid WholeExtent="          20          30          10          20           0           1">
<Piece Extent="          20          30          10          20           0           1">
<Points>
<DataArray NumberOfComponents="3" type="Float64" format="ascii">
    0.557795E-02    0.264236E-02    0.000000E+00
    0.588705E-02    0.264236E-02    0.000000E+00
    0.619924E-02    0.264236E-02    0.000000E+00
    0.651456E-02    0.264236E-02    0.000000E+00
    0.683303E-02    0.264236E-02    0.000000E+00
    0.715469E-02    0.264236E-02    0.000000E+00
    0.747956E-02    0.264236E-02    0.000000E+00
    0.780768E-02    0.264236E-02    0.000000E+00
    0.813908E-02    0.264236E-02    0.000000E+00
    0.847379E-02    0.264236E-02    0.000000E+00
    0.881185E-02    0.264236E-02    0.000000E+00
    0.557795E-02    0.287841E-02    0.000000E+00
    0.588705E-02    0.287841E-02    0.000000E+00
    0.619924E-02    0.287841E-02    0.000000E+00
    0.651456E-02    0.287841E-02    0.000000E+00
    0.683303E-02    0.287841E-02    0.000000E+00
    0.715469E-02    0.287841E-02    0.000000E+00
    0.747956E-02    0.287841E-02    0.000000E+00
    0.780768E-02    0.287841E-02    0.000000E+00
    0.813908E-02    0.287841E-02    0.000000E+00
    0.847379E-02    0.287841E-02    0.000000E+00
    0.881185E-02    0.287841E-02    0.000000E+00
    0.557795E-02    0.310974E-02    0.000000E+00
    0.588705E-02    0.310974E-02    0.000000E+00
    0.619924E-02    0.310974E-02    0.000000E+00
    0.651456E-02    0.310974E-02    0.000000E+00
    0.683303E-02    0.310974E-02    0.000000E+00
    0.715469E-02    0.310974E-02    0.000000E+00
    0.747956E-02    0.310974E-02    0.000000E+00
    0.780768E-02    0.310974E-02    0.000000E+00
    0.813908E-02    0.310974E-02    0.000000E+00
    0.847379E-02    0.310974E-02    0.000000E+00
    0.881185E-02    0.310974E-02    0.000000E+00
    0.557795E-02    0.333644E-02    0.000000E+00
    0.588705E-02    0.333644E-02    0.000000E+00
    0.619924E-02    0.333644E-02    0.000000E+00
    0.651456E-02    0.333644E-02    0.000000E+00
    0.683303E-02    0.333644E-02    0.000000E+00
    0.715469E-02    0.333644E-02    0.000000E+00
    0.747956E-02    0.333644E-02    0.000000E+00
    0.780768E-02    0.333644E-02    0.000000E+00
    0.813908E-02    0.333644E-02    0.000000E+00
    0.847379E-02    0.333644E-02    0.000000E+00
    0.881185E-02    0.333644E-02    0.000000E+00
    0.557795E-02    0.355861E-02    0.000000E+00
    0.588705E-02    0.355861E-02    0.000000E+00
    0.619924E-02    0.355861E-02    0.000000E+00
    0.651456E-02    0.355861E-02    0.000000E+00
    0.683303E-02    0.355861E-02    0.000000E+00
    0.715469E-02    0.355861E-02    0.000000E+00
    0.747956E-02    0.355861E-02    0.000000E+00
    0.780768E-02    0.355861E-02    0.000000E+00
    0.813908E-02    0.355861E-02    0.000000E+00
    0.847379E-02    0.355861E-02    0.000000E+00
    0.881185E-02    0.355861E-02    0.000000E+00
    0.557795E-02    0.377633E-02    0.000000E+00
    0.588705E-02    0.377633E-02    0.000000E+00
    0.619924E-02    0.377633E-02    0.000000E+00
    0.651456E-02    0.377633E-02    0.000000E+00
    0.683303E-02    0.377633E-02    0.000000E+00
    0.715469E-02    0.377633E-02    0.000000E+00
    0.747956E-02    0.377633E-02    0.000000E+00
    0.780768E-02    0.377633E-02    0.000000E+00
    0.813908E-02    0.377633E-02    0.000000E+00
    0.847379E-02    0.377633E-02    0.000000E+00
    0.881185E-02    0.377633E-02    0.000000E+00
    0.557795E-02    0.398970E-02    0.000000E+00
    0.588705E-02    0.398970E-02    0.000000E+00
    0.619924E-02    0.398970E-02    0.000000E+00
    0.651456E-02    0.398970E-02    0.000000E+00
    0.683303E-02    0.398970E-02    0.000000E+00
    0.715469E-02    0.398970E-02    0.000000E+00
    0.747956E-02    0.398970E-02    0.000000E+00
    0.780768E-02    0.398970E-02    0.000000E+00
    0.813908E-02    0.398970E-02    0.000000E+00
    0.847379E-02    0.398970E-02    0.000000E+00
    0.881185E-02    0.398970E-02    0.000000E+00
    0.557795E-02    0.419881E-02    0.000000E+00
    0.588705E-02    0.419881E-02    0.000000E+00
    0.619924E-02    0.419881E-02    0.000000E+00
    0.651456E-02    0.419881E-02    0.000000E+00
    0.683303E-02    0.419881E-02    0.000000E+00
    0.715469E-02    0.419881E-02    0.000000E+00
    0.747956E-02    0.419881E-02    0.000000E+00
    0.780768E-02    0.419881E-02    0.000000E+00
    0.813908E-02    0.419881E-02    0.000000E+00
    0.847379E-02    0.419881E-02    0.000000E+00
    0.881185E-02    0.419881E-02    0.000000E+00
    0.557795E-02    0.440373E-02    0.000000E+00
    0.588705E-02    0.440373E-02    0.000000E+00
    0.619924E-02    0.440373E-02    0.000000E+00
    0.651456E-02    0.440373E-02    0.000000E+00
    0.683303E-02    0.440373E-02    0.000000E+00
    0.715469E-02    0.440373E-02    0.000000E+00
    0.747956E-02    0.440373E-02    0.000000E+00
    0.780768E-02    0.440373E-02    0.000000E+00
    0.813908E-02    0.440373E-02    0.000000E+00
    0.847379E-02    0.440373E-02    0.000000E+00
    0.881185E-02    0.440373E-02    0.000000E+00
    0.557795E-02    0.460455E-02    0.000000E+00
    0.588705E-02    0.460455E-02    0.000000E+00
    0.619924E-02    0.460455E-02    0.000000E+00
    0.651456E-02    0.460455E-02    0.000000E+00
    0.683303E-02    0.460455E-02    0.000000E+00
    0.715469E-02    0.460455E-02    0.000000E+00
    0.747956E-02    0.460455E-02    0.000000E+00
    0.780768E-02    0.460455E-02    0.000000E+00
    0.813908E-02    0.460455E-02    0.000000E+00
    0.847379E-02    0.460455E-02    0.000000E+00
    0.881185E-02    0.460455E-02    0.000000E+00
    0.557795E-02    0.480136E-02    0.000000E+00
    0.588705E-02    0.480136E-02    0.000000E+00
    0.619924E-02    0.480136E-02    0.000000E+00
    0.651456E-02    0.480136E-02    0.000000E+00
    0.683303E-02    0.480136E-02    0.000000E+00
    0.715469E-02    0.480136E-02    0.000000E+00
    0.747956E-02    0.480136E-02    0.000000E+00
    0.780768E-02    0.480136E-02    0.000000E+00
    0.813908E-02    0.480136E-02    0.000000E+00
    0.847379E-02    0.480136E-02    0.000000E+00
    0.881185E-02    0.480136E-02    0.000000E+00
    0.557795E-02    0.264236E-02    0.160000E-02
    0.588705E-02    0.264236E-02    0.160000E-02
    0.619924E-02    0.264236E-02    0.160000E-02
    0.651456E-02    0.264236E-02    0.160000E-02
    0.683303E-02    0.264236E-02    0.160000E-02
    0.715469E-02    0.264236E-02    0.160000E-02
    0.747956E-02    0.264236E-02    0.160000E-02
    0.780768E-02    0.264236E-02    0.160000E-02
    0.813908E-02    0.264236E-02    0.160000E-02
    0.847379E-02    0.264236E-02    0.160000E-02
    0.881185E-02    0.264236E-02    0.160000E-02
    0.557795E-02    0.287841E-02    0.160000E-02
    0.588705E-02    0.287841E-02    0.160000E-02
    0.619924E-02    0.287841E-02    0.160000E-02
    0.651456E-02    0.287841E-02    0.160000E-02
    0.683303E-02    0.287841E-02    0.160000E-02
    0.715469E-02    0.287841E-02    0.160000E-02
    0.747956E-02    0.287841E-02    0.160000E-02
    0.780768E-02    0.287841E-02    0.160000E-02
    0.813908E-02    0.287841E-02    0.160000E-02
    0.847379E-02    0.287841E-02    0.160000E-02
    0.881185E-02    0.287841E-02    0.160000E-02
    0.557795E-02    0.310974E-02    0.160000E-02
    0.588705E-02    0.310974E-02    0.160000E-02
    0.619924E-02    0.310974E-02    0.160000E-02
    0.651456E-02    0.310974E-02    0.160000E-02
    0.683303E-02    0.310974E-02    0.160000E-02
    0.715469E-02    0.310974E-02    0.160000E-02
    0.747956E-02    0.310974E-02    0.160000E-02
    0.780768E-02    0.310974E-02    0.160000E-02
    0.813908E-02    0.310974E-02    0.160000E-02
    0.847379E-02    0.310974E-02    0.160000E-02
    0.881185E-02    0.310974E-02    0.160000E-02
    0.557795E-02    0.333644E-02    0.160000E-02
    0.588705E-02    0.333644E-02    0.160000E-02
    0.619924E-02    0.333644E-02    0.160000E-02
    0.651456E-02    0.333644E-02    0.160000E-02
    0.683303E-02    0.333644E-02    0.160000E-02
    0.715469E-02    0.333644E-02    0.160000E-02
    0.747956E-02    0.333644E-02    0.160000E-02
    0.780768E-02    0.333644E-02    0.160000E-02
    0.813908E-02    0.333644E-02    0.160000E-02
    0.847379E-02    0.333644E-02    0.160000E-02
    0.881185E-02    0.333644E-02    0.160000E-02
    0.557795E-02    0.355861E-02    0.160000E-02
    0.588705E-02    0.355861E-02    0.160000E-02
    0.619924E-02    0.355861E-02    0.160000E-02
    0.651456E-02    0.355861E-02    0.160000E-02
    0.683303E-02    0.355861E-02    0.160000E-02
    0.715469E-02    0.355861E-02    0.160000E-02
    0.747956E-02    0.355861E-02    0.160000E-02
    0.780768E-02    0.355861E-02    0.160000E-02
    0.813908E-02    0.355861E-02    0.160000E-02
    0.847379E-02    0.355861E-02    0.160000E-02
    0.881185E-02    0.355861E-02    0.160000E-02
    0.557795E-02    0.377633E-02    0.160000E-02
    0.588705E-02    0.377633E-02    0.160000E-02
    0.619924E-02    0.377633E-02    0.160000E-02
    0.651456E-02    0.377633E-02    0.160000E-02
    0.683303E-02    0.377633E-02    0.160000E-02
    0.715469E-02    0.377633E-02    0.160000E-02
    0.747956E-02    0.377633E-02    0.160000E-02
    0.780768E-02    0.377633E-02    0.160000E-02
    0.813908E-02    0.377633E-02    0.160000E-02
    0.847379E-02    0.377633E-02    0.160000E-02
    0.881185E-02    0.377633E-02    0.160000E-02
    0.557795E-02    0.398970E-02    0.160000E-02
    0.588705E-02    0.398970E-02    0.160000E-02
    0.619924E-02    0.398970E-02    0.160000E-02
    0.651456E-02    0.398970E-02    0.160000E-02
    0.683303E-02    0.398970E-02    0.160000E-02
    0.715469E-02    0.398970E-02    0.160000E-02
    0.747956E-02    0.398970E-02    0.160000E-02
    0.780768E-02    0.398970E-02    0.160000E-02
    0.813908E-02    0.398970E-02    0.160000E-02
    0.847379E-02    0.398970E-02    0.160000E-02
    0.881185E-02    0.398970E-02    0.160000E-02
    0.557795E-02    0.419881E-02    0.160000E-02
    0.588705E-02    0.419881E-02    0.160000E-02
    0.619924E-02    0.419881E-02    0.160000E-02
    0.651456E-02    0.419881E-02    0.160000E-02
    0.683303E-02    0.419881E-02    0.160000E-02
    0.715469E-02    0.419881E-02    0.160000E-02
    0.747956E-02    0.419881E-02    0.160000E-02
    0.780768E-02    0.419881E-02    0.160000E-02
    0.813908E-02    0.419881E-02    0.160000E-02
    0.847379E-02    0.419881E-02    0.160000E-02
    0.881185E-02    0.419881E-02    0.160000E-02
    0.557795E-02    0.440373E-02    0.160000E-02
    0.588705E-02    0.440373E-02    0.160000E-02
    0.619924E-02    0.440373E-02    0.160000E-02
    0.651456E-02    0.440373E-02    0.160000E-02
    0.683303E-02    0.440373E-02    0.160000E-02
    0.715469E-02    0.440373E-02    0.160000E-02
    0.747956E-02    0.440373E-02    0.160000E-02
    0.780768E-02    0.440373E-02    0.160000E-02
    0.813908E-02    0.440373E-02    0.160000E-02
    0.847379E-02    0.440373E-02    0.160000E-02
    0.881185E-02    0.440373E-02    0.160000E-02
    0.557795E-02    0.460455E-02    0.160000E-02
    0.588705E-02    0.460455E-02    0.160000E-02
    0.619924E-02    0.460455E-02    0.160000E-02
    0.651456E-02    0.460455E-02    0.160000E-02
    0.683303E-02    0.460455E-02    0.160000E-02
    0.715469E-02    0.460455E-02    0.160000E-02
    0.747956E-02    0.460455E-02    0.160000E-02
    0.780768E-02    0.460455E-02    0.160000E-02
    0.813908E-02    0.460455E-02    0.160000E-02
    0.847379E-02    0.460455E-02    0.160000E-02
    0.881185E-02    0.460455E-02    0.160000E-02
    0.557795E-02    0.480136E-02    0.160000E-02
    0.588705E-02    0.480136E-02    0.160000E-02
    0.619924E-02    0.480136E-02    0.160000E-02
    0.651456E-02    0.480136E-02    0.160000E-02
    0.683303E-02    0.480136E-02    0.160000E-02
    0.715469E-02    0.480136E-02    0.160000E-02
    0.747956E-02    0.480136E-02    0.160000E-02
    0.780768E-02    0.480136E-02    0.160000E-02
    0.813908E-02    0.480136E-02    0.160000E-02
    0.847379E-02    0.480136E-02    0.160000E-02
    0.881185E-02    0.480136E-02    0.160000E-02
</DataArray>
</Points>
<PointData>
<DataArray Name="Velocity" type="Float64" format="ascii" NumberOfComponents="3">
    0.108708E+00   -0.226916E-01    0.000000E+00
    0.112418E+00   -0.220298E-01    0.000000E+00
    0.115975E+00   -0.212523E-01    0.000000E+00
    0.119385E+00   -0.204685E-01    0.000000E+00
    0.122656E+00   -0.196917E-01    0.000000E+00
    0.125799E+00   -0.189330E-01    0.000000E+00
    0.128823E+00   -0.182009E-01    0.000000E+00
    0.131739E+00   -0.175024E-01    0.000000E+00
    0.134558E+00   -0.168423E-01    0.000000E+00
    0.137291E+00   -0.162244E-01    0.000000E+00
    0.139950E+00   -0.156513E-01    0.000000E+00
    0.105070E+00   -0.235985E-01    0.000000E+00
    0.108417E+00   -0.228645E-01    0.000000E+00
    0.111622E+00   -0.220134E-01    0.000000E+00
    0.114694E+00   -0.211655E-01    0.000000E+00
    0.117642E+00   -0.203338E-01    0.000000E+00
    0.120477E+00   -0.195283E-01    0.000000E+00
    0.123208E+00   -0.187569E-01    0.000000E+00
    0.125846E+00   -0.180255E-01    0.000000E+00
    0.128403E+00   -0.173387E-01    0.000000E+00
    0.130888E+00   -0.166996E-01    0.000000E+00
    0.133313E+00   -0.161106E-01    0.000000E+00
    0.100666E+00   -0.242231E-01    0.000000E+00
    0.103612E+00   -0.234337E-01    0.000000E+00
    0.106436E+00   -0.225280E-01    0.000000E+00
    0.109147E+00   -0.216342E-01    0.000000E+00
    0.111754E+00   -0.207643E-01    0.000000E+00
    0.114268E+00   -0.199278E-01    0.000000E+00
    0.116698E+00   -0.191317E-01    0.000000E+00
    0.119055E+00   -0.183814E-01    0.000000E+00
    0.121348E+00   -0.176807E-01    0.000000E+00
    0.123587E+00   -0.170323E-01    0.000000E+00
    0.125783E+00   -0.164381E-01    0.000000E+00
    0.963316E-01   -0.246037E-01    0.000000E+00
    0.989148E-01   -0.237730E-01    0.000000E+00
    0.101394E+00   -0.228289E-01    0.000000E+00
    0.103779E+00   -0.219050E-01    0.000000E+00
    0.106079E+00   -0.210124E-01    0.000000E+00
    0.108305E+00   -0.201594E-01    0.000000E+00
    0.110466E+00   -0.193523E-01    0.000000E+00
    0.112571E+00   -0.185956E-01    0.000000E+00
    0.114630E+00   -0.178926E-01    0.000000E+00
    0.116650E+00   -0.172456E-01    0.000000E+00
    0.118643E+00   -0.166560E-01    0.000000E+00
    0.921501E-01   -0.247806E-01    0.000000E+00
    0.944123E-01   -0.239219E-01    0.000000E+00
    0.965879E-01   -0.229544E-01    0.000000E+00
    0.986873E-01   -0.220149E-01    0.000000E+00
    0.100720E+00   -0.211131E-01    0.000000E+00
    0.102696E+00   -0.202563E-01    0.000000E+00
    0.104623E+00   -0.194498E-01    0.000000E+00
    0.106510E+00   -0.186976E-01    0.000000E+00
    0.108366E+00   -0.180022E-01    0.000000E+00
    0.110198E+00   -0.173655E-01    0.000000E+00
    0.112015E+00   -0.167887E-01    0.000000E+00
    0.882212E-01   -0.247937E-01    0.000000E+00
    0.902038E-01   -0.239196E-01    0.000000E+00
    0.921167E-01   -0.229424E-01    0.000000E+00
    0.939700E-01   -0.219999E-01    0.000000E+00
    0.957730E-01   -0.211006E-01    0.000000E+00
    0.975342E-01   -0.202508E-01    0.000000E+00
    0.992617E-01   -0.194547E-01    0.000000E+00
    0.100963E+00   -0.187157E-01    0.000000E+00
    0.102646E+00   -0.180357E-01    0.000000E+00
    0.104318E+00   -0.174164E-01    0.000000E+00
    0.105985E+00   -0.168586E-01    0.000000E+00
    0.846371E-01   -0.246794E-01    0.000000E+00
    0.863772E-01   -0.238016E-01    0.000000E+00
    0.880638E-01   -0.228267E-01    0.000000E+00
    0.897062E-01   -0.218923E-01    0.000000E+00
    0.913129E-01   -0.210054E-01    0.000000E+00
    0.928915E-01   -0.201711E-01    0.000000E+00
    0.944492E-01   -0.193932E-01    0.000000E+00
    0.959927E-01   -0.186741E-01    0.000000E+00
    0.975285E-01   -0.180156E-01    0.000000E+00
    0.990632E-01   -0.174188E-01    0.000000E+00
    0.100603E+00   -0.168847E-01    0.000000E+00
    0.814677E-01   -0.244691E-01    0.000000E+00
    0.829969E-01   -0.235979E-01    0.000000E+00
    0.844878E-01   -0.226359E-01    0.000000E+00
    0.859487E-01   -0.217186E-01    0.000000E+00
    0.873869E-01   -0.208519E-01    0.000000E+00
    0.888091E-01   -0.200401E-01    0.000000E+00
    0.902214E-01   -0.192860E-01    0.000000E+00
    0.916294E-01   -0.185918E-01    0.000000E+00
    0.930389E-01   -0.179589E-01    0.000000E+00
    0.944556E-01   -0.173883E-01    0.000000E+00
    0.958852E-01   -0.168808E-01    0.000000E+00
    0.787555E-01   -0.241882E-01    0.000000E+00
    0.800995E-01   -0.233323E-01    0.000000E+00
    0.814192E-01   -0.223918E-01    0.000000E+00
    0.827219E-01   -0.214990E-01    0.000000E+00
    0.840136E-01   -0.206587E-01    0.000000E+00
    0.852998E-01   -0.198743E-01    0.000000E+00
    0.865854E-01   -0.191483E-01    0.000000E+00
    0.878752E-01   -0.184824E-01    0.000000E+00
    0.891740E-01   -0.178780E-01    0.000000E+00
    0.904867E-01   -0.173358E-01    0.000000E+00
    0.918183E-01   -0.168566E-01    0.000000E+00
    0.765154E-01   -0.238557E-01    0.000000E+00
    0.776940E-01   -0.230227E-01    0.000000E+00
    0.788617E-01   -0.221107E-01    0.000000E+00
    0.800241E-01   -0.212481E-01    0.000000E+00
    0.811858E-01   -0.204387E-01    0.000000E+00
    0.823512E-01   -0.196854E-01    0.000000E+00
    0.835241E-01   -0.189903E-01    0.000000E+00
    0.847082E-01   -0.183549E-01    0.000000E+00
    0.859076E-01   -0.177805E-01    0.000000E+00
    0.871262E-01   -0.172679E-01    0.000000E+00
    0.883683E-01   -0.168179E-01    0.000000E+00
    0.747379E-01   -0.234857E-01    0.000000E+00
    0.757667E-01   -0.226814E-01    0.000000E+00
    0.767968E-01   -0.218036E-01    0.000000E+00
    0.778322E-01   -0.209754E-01    0.000000E+00
    0.788763E-01   -0.202002E-01    0.000000E+00
    0.799320E-01   -0.194805E-01    0.000000E+00
    0.810021E-01   -0.188181E-01    0.000000E+00
    0.820894E-01   -0.182145E-01    0.000000E+00
    0.831971E-01   -0.176709E-01    0.000000E+00
    0.843282E-01   -0.171882E-01    0.000000E+00
    0.854865E-01   -0.167675E-01    0.000000E+00
    0.109177E+00   -0.227844E-01    0.558057E-17
    0.112938E+00   -0.220298E-01    0.539575E-17
    0.116544E+00   -0.212523E-01    0.520532E-17
    0.120003E+00   -0.204685E-01    0.501333E-17
    0.123322E+00   -0.196917E-01    0.482308E-17
    0.126511E+00   -0.189330E-01    0.463724E-17
    0.129580E+00   -0.182009E-01    0.445795E-17
    0.132539E+00   -0.175024E-01    0.428685E-17
    0.135399E+00   -0.168423E-01    0.412517E-17
    0.138171E+00   -0.162244E-01    0.397382E-17
    0.140867E+00   -0.156513E-01    0.383346E-17
    0.105070E+00   -0.237023E-01    0.580540E-17
    0.108417E+00   -0.228645E-01    0.560018E-17
    0.111622E+00   -0.220134E-01    0.539173E-17
    0.114694E+00   -0.211655E-01    0.518406E-17
    0.117642E+00   -0.203338E-01    0.498034E-17
    0.120477E+00   -0.195283E-01    0.478305E-17
    0.123208E+00   -0.187569E-01    0.459411E-17
    0.125846E+00   -0.180255E-01    0.441498E-17
    0.128403E+00   -0.173387E-01    0.424676E-17
    0.130888E+00   -0.166996E-01    0.409023E-17
    0.133313E+00   -0.161106E-01    0.394595E-17
    0.100666E+00   -0.243357E-01    0.596052E-17
    0.103612E+00   -0.234337E-01    0.573960E-17
    0.106436E+00   -0.225280E-01    0.551778E-17
    0.109147E+00   -0.216342E-01    0.529885E-17
    0.111754E+00   -0.207643E-01    0.508579E-17
    0.114268E+00   -0.199278E-01    0.488090E-17
    0.116698E+00   -0.191317E-01    0.468593E-17
    0.119055E+00   -0.183814E-01    0.450215E-17
    0.121348E+00   -0.176807E-01    0.433053E-17
    0.123587E+00   -0.170323E-01    0.417172E-17
    0.125783E+00   -0.164381E-01    0.402618E-17
    0.963316E-01   -0.247230E-01    0.605538E-17
    0.989148E-01   -0.237730E-01    0.582270E-17
    0.101394E+00   -0.228289E-01    0.559148E-17
    0.103779E+00   -0.219050E-01    0.536519E-17
    0.106079E+00   -0.210124E-01    0.514655E-17
    0.108305E+00   -0.201594E-01    0.493763E-17
    0.110466E+00   -0.193523E-01    0.473994E-17
    0.112571E+00   -0.185956E-01    0.455461E-17
    0.114630E+00   -0.178926E-01    0.438243E-17
    0.116650E+00   -0.172456E-01    0.422396E-17
    0.118643E+00   -0.166560E-01    0.407955E-17
    0.921501E-01   -0.249046E-01    0.609986E-17
    0.944123E-01   -0.239219E-01    0.585918E-17
    0.965879E-01   -0.229544E-01    0.562221E-17
    0.986873E-01   -0.220149E-01    0.539209E-17
    0.100720E+00   -0.211131E-01    0.517121E-17
    0.102696E+00   -0.202563E-01    0.496135E-17
    0.104623E+00   -0.194498E-01    0.476384E-17
    0.106510E+00   -0.186976E-01    0.457959E-17
    0.108366E+00   -0.180022E-01    0.440927E-17
    0.110198E+00   -0.173655E-01    0.425332E-17
    0.112015E+00   -0.167887E-01    0.411204E-17
    0.882212E-01   -0.249205E-01    0.610376E-17
    0.902038E-01   -0.239196E-01    0.585862E-17
    0.921167E-01   -0.229424E-01    0.561926E-17
    0.939700E-01   -0.219999E-01    0.538842E-17
    0.957730E-01   -0.211006E-01    0.516817E-17
    0.975342E-01   -0.202508E-01    0.496001E-17
    0.992617E-01   -0.194547E-01    0.476503E-17
    0.100963E+00   -0.187157E-01    0.458401E-17
    0.102646E+00   -0.180357E-01    0.441748E-17
    0.104318E+00   -0.174164E-01    0.426579E-17
    0.105985E+00   -0.168586E-01    0.412917E-17
    0.846371E-01   -0.248073E-01    0.607605E-17
    0.863772E-01   -0.238016E-01    0.582971E-17
    0.880638E-01   -0.228267E-01    0.559094E-17
    0.897062E-01   -0.218923E-01    0.536207E-17
    0.913129E-01   -0.210054E-01    0.514484E-17
    0.928915E-01   -0.201711E-01    0.494051E-17
    0.944492E-01   -0.193932E-01    0.474996E-17
    0.959927E-01   -0.186741E-01    0.457383E-17
    0.975285E-01   -0.180156E-01    0.441254E-17
    0.990632E-01   -0.174188E-01    0.426638E-17
    0.100603E+00   -0.168847E-01    0.413555E-17
    0.814677E-01   -0.245966E-01    0.602443E-17
    0.829969E-01   -0.235979E-01    0.577981E-17
    0.844878E-01   -0.226359E-01    0.554419E-17
    0.859487E-01   -0.217186E-01    0.531952E-17
    0.873869E-01   -0.208519E-01    0.510725E-17
    0.888091E-01   -0.200401E-01    0.490840E-17
    0.902214E-01   -0.192860E-01    0.472371E-17
    0.916294E-01   -0.185918E-01    0.455368E-17
    0.930389E-01   -0.179589E-01    0.439867E-17
    0.944556E-01   -0.173883E-01    0.425891E-17
    0.958852E-01   -0.168808E-01    0.413460E-17
    0.787555E-01   -0.243138E-01    0.595516E-17
    0.800995E-01   -0.233323E-01    0.571477E-17
    0.814192E-01   -0.223918E-01    0.548441E-17
    0.827219E-01   -0.214990E-01    0.526574E-17
    0.840136E-01   -0.206587E-01    0.505992E-17
    0.852998E-01   -0.198743E-01    0.486780E-17
    0.865854E-01   -0.191483E-01    0.468998E-17
    0.878752E-01   -0.184824E-01    0.452689E-17
    0.891740E-01   -0.178780E-01    0.437884E-17
    0.904867E-01   -0.173358E-01    0.424604E-17
    0.918183E-01   -0.168566E-01    0.412868E-17
    0.765154E-01   -0.239783E-01    0.587300E-17
    0.776940E-01   -0.230227E-01    0.563892E-17
    0.788617E-01   -0.221107E-01    0.541557E-17
    0.800241E-01   -0.212481E-01    0.520428E-17
    0.811858E-01   -0.204387E-01    0.500603E-17
    0.823512E-01   -0.196854E-01    0.482153E-17
    0.835241E-01   -0.189903E-01    0.465128E-17
    0.847082E-01   -0.183549E-01    0.449566E-17
    0.859076E-01   -0.177805E-01    0.435496E-17
    0.871262E-01   -0.172679E-01    0.422941E-17
    0.883683E-01   -0.168179E-01    0.411919E-17
    0.747379E-01   -0.236042E-01    0.578137E-17
    0.757667E-01   -0.226814E-01    0.555535E-17
    0.767968E-01   -0.218036E-01    0.534035E-17
    0.778322E-01   -0.209754E-01    0.513750E-17
    0.788763E-01   -0.202002E-01    0.494763E-17
    0.799320E-01   -0.194805E-01    0.477134E-17
    0.810021E-01   -0.188181E-01    0.460910E-17
    0.820894E-01   -0.182145E-01    0.446127E-17
    0.831971E-01   -0.176709E-01    0.432812E-17
    0.843282E-01   -0.171882E-01    0.420990E-17
    0.854865E-01   -0.167675E-01    0.410685E-17
</DataArray>
</PointData>
<CellData>
<DataArray Name="DP" type="Float64" format="ascii" NumberOfComponents="1">
      0.000000E+0000
      0.000000E+0000
      0.000000E+0000
      0.000000E+0000
      0.000000E+0000
      0.000000E+0000
      0.000000E+0000
      0.000000E+0000
      0.000000E+0000
      0.000000E+0000
      0.000000E+0000
      0.000000E+0000
      0.000000E+0000
      0.000000E+0000
      0.000000E+0000
      0.000000E+0000
      0.000000E+0000
      0.000000E+0000
      0.000000E+0000
      0.000000E+0000
      0.000000E+0000
      0.000000E+0000
      0.000000E+0000
      0.000000E+0000
      0.000000E+0000
      0.000000E+0000
      0.000000E+0000
      0.000000E+0000
      0.000000E+0000
      0.000000E+0000
      0.000000E+0000
      0.000000E+0000
      0.000000E+0000
      0.000000E+0000
      0.000000E+0000
      0.000000E+0000
      0.000000E+0000
      0.000000E+0000
      0.000000E+0000
      0.000000E+0000
      0.000000E+0000
      0.000000E+0000
      0.000000E+0000
      0.000000E+0000
      0.000000E+0000
      0.000000E+0000
      0.000000E+0000
      0.000000E+0000
      0.000000E+0000
      0.000000E+0000
      0.000000E+0000
      0.000000E+0000
      0.000000E+0000
      0.000000E+0000
      0.000000E+0000
      0.000000E+0000
      0.000000E+0000
      0.000000E+0000
      0.000000E+0000
      0.000000E+0000
      0.000000E+0000
      0.000000E+0000
      0.000000E+0000
      0.000000E+0000
      0.000000E+0000
      0.000000E+0000
      0.000000E+0000
      0.000000E+0000
      0.000000E+0000
      0.000000E+0000
      0.000000E+0000
      0.000000E+0000
      0.000000E+0000
      0.000000E+0000
      0.000000E+0000
      0.000000E+0000
      0.000000E+0000
      0.000000E+0000
      0.000000E+0000
      0.000000E+0000
      0.000000E+0000
      0.000000E+0000
      0.000000E+0000
      0.000000E+0000
      0.000000E+0000
      0.000000E+0000
      0.000000E+0000
      0.000000E+0000
      0.000000E+0000
      0.000000E+0000
      0.000000E+0000
      0.000000E+0000
      0.000000E+0000
      0.000000E+0000
      0.000000E+0000
      0.000000E+0000
      0.000000E+0000
      0.000000E+0000
      0.000000E+0000
      0.000000E+0000
</DataArray>
<DataArray Name="P" type="Float64" format="ascii" NumberOfComponents="1">
      0.566735E+0000
      0.563269E+0000
      0.559749E+0000
      0.556176E+0000
      0.552552E+0000
      0.548880E+0000
      0.545161E+0000
      0.541396E+0000
      0.537585E+0000
      0.533730E+0000
      0.566676E+0000
      0.563208E+0000
      0.559685E+0000
      0.556111E+0000
      0.552488E+0000
      0.548817E+0000
      0.545099E+0000
      0.541335E+0000
      0.537527E+0000
      0.533674E+0000
      0.566620E+0000
      0.563149E+0000
      0.559625E+0000
      0.556050E+0000
      0.552427E+0000
      0.548757E+0000
      0.545040E+0000
      0.541278E+0000
      0.537471E+0000
      0.533620E+0000
      0.566566E+0000
      0.563093E+0000
      0.559567E+0000
      0.555992E+0000
      0.552369E+0000
      0.548699E+0000
      0.544983E+0000
      0.541223E+0000
      0.537417E+0000
      0.533568E+0000
      0.566515E+0000
      0.563039E+0000
      0.559512E+0000
      0.555937E+0000
      0.552314E+0000
      0.548645E+0000
      0.544930E+0000
      0.541170E+0000
      0.537366E+0000
      0.533519E+0000
      0.566466E+0000
      0.562988E+0000
      0.559460E+0000
      0.555885E+0000
      0.552262E+0000
      0.548593E+0000
      0.544879E+0000
      0.541120E+0000
      0.537318E+0000
      0.533472E+0000
      0.566420E+0000
      0.562940E+0000
      0.559412E+0000
      0.555835E+0000
      0.552212E+0000
      0.548544E+0000
      0.544830E+0000
      0.541073E+0000
      0.537272E+0000
      0.533427E+0000
      0.566376E+0000
      0.562895E+0000
      0.559365E+0000
      0.555789E+0000
      0.552166E+0000
      0.548498E+0000
      0.544785E+0000
      0.541028E+0000
      0.537228E+0000
      0.533385E+0000
      0.566334E+0000
      0.562852E+0000
      0.559322E+0000
      0.555745E+0000
      0.552122E+0000
      0.548454E+0000
      0.544742E+0000
      0.540986E+0000
      0.537187E+0000
      0.533345E+0000
      0.566296E+0000
      0.562813E+0000
      0.559282E+0000
      0.555704E+0000
      0.552081E+0000
      0.548414E+0000
      0.544702E+0000
      0.540947E+0000
      0.537148E+0000
      0.533307E+0000
</DataArray>
<DataArray Name="RHO" type="Float64" format="ascii" NumberOfComponents="1">
      0.951015E+0000
      0.956550E+0000
      0.961868E+0000
      0.966972E+0000
      0.971863E+0000
      0.976551E+0000
      0.981039E+0000
      0.985331E+0000
      0.989437E+0000
      0.993366E+0000
      0.967470E+0000
      0.973404E+0000
      0.979069E+0000
      0.984459E+0000
      0.989581E+0000
      0.994445E+0000
      0.999064E+0000
      0.100345E+0001
      0.100761E+0001
      0.101157E+0001
      0.985060E+0000
      0.991269E+0000
      0.997135E+0000
      0.100267E+0001
      0.100788E+0001
      0.101278E+0001
      0.101741E+0001
      0.102177E+0001
      0.102588E+0001
      0.102976E+0001
      0.100334E+0001
      0.100965E+0001
      0.101554E+0001
      0.102106E+0001
      0.102621E+0001
      0.103102E+0001
      0.103552E+0001
      0.103973E+0001
      0.104369E+0001
      0.104740E+0001
      0.102180E+0001
      0.102800E+0001
      0.103376E+0001
      0.103910E+0001
      0.104404E+0001
      0.104863E+0001
      0.105290E+0001
      0.105687E+0001
      0.106058E+0001
      0.106403E+0001
      0.103990E+0001
      0.104583E+0001
      0.105129E+0001
      0.105631E+0001
      0.106093E+0001
      0.106520E+0001
      0.106914E+0001
      0.107280E+0001
      0.107618E+0001
      0.107933E+0001
      0.105717E+0001
      0.106268E+0001