<?xml version="1.0"?>
<VTKFile type="StructuredGrid" version="0.1" byte_order="LittleEndian">
<StructuredGrid WholeExtent="           0          10          60          70           0           1">
<Piece Extent="           0          10          60          70           0           1">
<Points>
<DataArray NumberOfComponents="3" type="Float64" format="ascii">
    0.000000E+00    0.167655E-01    0.000000E+00
    0.253324E-03    0.167655E-01    0.000000E+00
    0.509182E-03    0.167655E-01    0.000000E+00
    0.767598E-03    0.167655E-01    0.000000E+00
    0.102860E-02    0.167655E-01    0.000000E+00
    0.129221E-02    0.167655E-01    0.000000E+00
    0.155845E-02    0.167655E-01    0.000000E+00
    0.182736E-02    0.167655E-01    0.000000E+00
    0.209896E-02    0.167655E-01    0.000000E+00
    0.237327E-02    0.167655E-01    0.000000E+00
    0.265033E-02    0.167655E-01    0.000000E+00
    0.000000E+00    0.172792E-01    0.000000E+00
    0.253324E-03    0.172792E-01    0.000000E+00
    0.509182E-03    0.172792E-01    0.000000E+00
    0.767598E-03    0.172792E-01    0.000000E+00
    0.102860E-02    0.172792E-01    0.000000E+00
    0.129221E-02    0.172792E-01    0.000000E+00
    0.155845E-02    0.172792E-01    0.000000E+00
    0.182736E-02    0.172792E-01    0.000000E+00
    0.209896E-02    0.172792E-01    0.000000E+00
    0.237327E-02    0.172792E-01    0.000000E+00
    0.265033E-02    0.172792E-01    0.000000E+00
    0.000000E+00    0.178083E-01    0.000000E+00
    0.253324E-03    0.178083E-01    0.000000E+00
    0.509182E-03    0.178083E-01    0.000000E+00
    0.767598E-03    0.178083E-01    0.000000E+00
    0.102860E-02    0.178083E-01    0.000000E+00
    0.129221E-02    0.178083E-01    0.000000E+00
    0.155845E-02    0.178083E-01    0.000000E+00
    0.182736E-02    0.178083E-01    0.000000E+00
    0.209896E-02    0.178083E-01    0.000000E+00
    0.237327E-02    0.178083E-01    0.000000E+00
    0.265033E-02    0.178083E-01    0.000000E+00
    0.000000E+00    0.183533E-01    0.000000E+00
    0.253324E-03    0.183533E-01    0.000000E+00
    0.509182E-03    0.183533E-01    0.000000E+00
    0.767598E-03    0.183533E-01    0.000000E+00
    0.102860E-02    0.183533E-01    0.000000E+00
    0.129221E-02    0.183533E-01    0.000000E+00
    0.155845E-02    0.183533E-01    0.000000E+00
    0.182736E-02    0.183533E-01    0.000000E+00
    0.209896E-02    0.183533E-01    0.000000E+00
    0.237327E-02    0.183533E-01    0.000000E+00
    0.265033E-02    0.183533E-01    0.000000E+00
    0.000000E+00    0.189147E-01    0.000000E+00
    0.253324E-03    0.189147E-01    0.000000E+00
    0.509182E-03    0.189147E-01    0.000000E+00
    0.767598E-03    0.189147E-01    0.000000E+00
    0.102860E-02    0.189147E-01    0.000000E+00
    0.129221E-02    0.189147E-01    0.000000E+00
    0.155845E-02    0.189147E-01    0.000000E+00
    0.182736E-02    0.189147E-01    0.000000E+00
    0.209896E-02    0.189147E-01    0.000000E+00
    0.237327E-02    0.189147E-01    0.000000E+00
    0.265033E-02    0.189147E-01    0.000000E+00
    0.000000E+00    0.194929E-01    0.000000E+00
    0.253324E-03    0.194929E-01    0.000000E+00
    0.509182E-03    0.194929E-01    0.000000E+00
    0.767598E-03    0.194929E-01    0.000000E+00
    0.102860E-02    0.194929E-01    0.000000E+00
    0.129221E-02    0.194929E-01    0.000000E+00
    0.155845E-02    0.194929E-01    0.000000E+00
    0.182736E-02    0.194929E-01    0.000000E+00
    0.209896E-02    0.194929E-01    0.000000E+00
    0.237327E-02    0.194929E-01    0.000000E+00
    0.265033E-02    0.194929E-01    0.000000E+00
    0.000000E+00    0.200884E-01    0.000000E+00
    0.253324E-03    0.200884E-01    0.000000E+00
    0.509182E-03    0.200884E-01    0.000000E+00
    0.767598E-03    0.200884E-01    0.000000E+00
    0.102860E-02    0.200884E-01    0.000000E+00
    0.129221E-02    0.200884E-01    0.000000E+00
    0.155845E-02    0.200884E-01    0.000000E+00
    0.182736E-02    0.200884E-01    0.000000E+00
    0.209896E-02    0.200884E-01    0.000000E+00
    0.237327E-02    0.200884E-01    0.000000E+00
    0.265033E-02    0.200884E-01    0.000000E+00
    0.000000E+00    0.207018E-01    0.000000E+00
    0.253324E-03    0.207018E-01    0.000000E+00
    0.509182E-03    0.207018E-01    0.000000E+00
    0.767598E-03    0.207018E-01    0.000000E+00
    0.102860E-02    0.207018E-01    0.000000E+00
    0.129221E-02    0.207018E-01    0.000000E+00
    0.155845E-02    0.207018E-01    0.000000E+00
    0.182736E-02    0.207018E-01    0.000000E+00
    0.209896E-02    0.207018E-01    0.000000E+00
    0.237327E-02    0.207018E-01    0.000000E+00
    0.265033E-02    0.207018E-01    0.000000E+00
    0.000000E+00    0.213336E-01    0.000000E+00
    0.253324E-03    0.213336E-01    0.000000E+00
    0.509182E-03    0.213336E-01    0.000000E+00
    0.767598E-03    0.213336E-01    0.000000E+00
    0.102860E-02    0.213336E-01    0.000000E+00
    0.129221E-02    0.213336E-01    0.000000E+00
    0.155845E-02    0.213336E-01    0.000000E+00
    0.182736E-02    0.213336E-01    0.000000E+00
    0.209896E-02    0.213336E-01    0.000000E+00
    0.237327E-02    0.213336E-01    0.000000E+00
    0.265033E-02    0.213336E-01    0.000000E+00
    0.000000E+00    0.219843E-01    0.000000E+00
    0.253324E-03    0.219843E-01    0.000000E+00
    0.509182E-03    0.219843E-01    0.000000E+00
    0.767598E-03    0.219843E-01    0.000000E+00
    0.102860E-02    0.219843E-01    0.000000E+00
    0.129221E-02    0.219843E-01    0.000000E+00
    0.155845E-02    0.219843E-01    0.000000E+00
    0.182736E-02    0.219843E-01    0.000000E+00
    0.209896E-02    0.219843E-01    0.000000E+00
    0.237327E-02    0.219843E-01    0.000000E+00
    0.265033E-02    0.219843E-01    0.000000E+00
    0.000000E+00    0.226546E-01    0.000000E+00
    0.253324E-03    0.226546E-01    0.000000E+00
    0.509182E-03    0.226546E-01    0.000000E+00
    0.767598E-03    0.226546E-01    0.000000E+00
    0.102860E-02    0.226546E-01    0.000000E+00
    0.129221E-02    0.226546E-01    0.000000E+00
    0.155845E-02    0.226546E-01    0.000000E+00
    0.182736E-02    0.226546E-01    0.000000E+00
    0.209896E-02    0.226546E-01    0.000000E+00
    0.237327E-02    0.226546E-01    0.000000E+00
    0.265033E-02    0.226546E-01    0.000000E+00
    0.000000E+00    0.167655E-01    0.160000E-02
    0.253324E-03    0.167655E-01    0.160000E-02
    0.509182E-03    0.167655E-01    0.160000E-02
    0.767598E-03    0.167655E-01    0.160000E-02
    0.102860E-02    0.167655E-01    0.160000E-02
    0.129221E-02    0.167655E-01    0.160000E-02
    0.155845E-02    0.167655E-01    0.160000E-02
    0.182736E-02    0.167655E-01    0.160000E-02
    0.209896E-02    0.167655E-01    0.160000E-02
    0.237327E-02    0.167655E-01    0.160000E-02
    0.265033E-02    0.167655E-01    0.160000E-02
    0.000000E+00    0.172792E-01    0.160000E-02
    0.253324E-03    0.172792E-01    0.160000E-02
    0.509182E-03    0.172792E-01    0.160000E-02
    0.767598E-03    0.172792E-01    0.160000E-02
    0.102860E-02    0.172792E-01    0.160000E-02
    0.129221E-02    0.172792E-01    0.160000E-02
    0.155845E-02    0.172792E-01    0.160000E-02
    0.182736E-02    0.172792E-01    0.160000E-02
    0.209896E-02    0.172792E-01    0.160000E-02
    0.237327E-02    0.172792E-01    0.160000E-02
    0.265033E-02    0.172792E-01    0.160000E-02
    0.000000E+00    0.178083E-01    0.160000E-02
    0.253324E-03    0.178083E-01    0.160000E-02
    0.509182E-03    0.178083E-01    0.160000E-02
    0.767598E-03    0.178083E-01    0.160000E-02
    0.102860E-02    0.178083E-01    0.160000E-02
    0.129221E-02    0.178083E-01    0.160000E-02
    0.155845E-02    0.178083E-01    0.160000E-02
    0.182736E-02    0.178083E-01    0.160000E-02
    0.209896E-02    0.178083E-01    0.160000E-02
    0.237327E-02    0.178083E-01    0.160000E-02
    0.265033E-02    0.178083E-01    0.160000E-02
    0.000000E+00    0.183533E-01    0.160000E-02
    0.253324E-03    0.183533E-01    0.160000E-02
    0.509182E-03    0.183533E-01    0.160000E-02
    0.767598E-03    0.183533E-01    0.160000E-02
    0.102860E-02    0.183533E-01    0.160000E-02
    0.129221E-02    0.183533E-01    0.160000E-02
    0.155845E-02    0.183533E-01    0.160000E-02
    0.182736E-02    0.183533E-01    0.160000E-02
    0.209896E-02    0.183533E-01    0.160000E-02
    0.237327E-02    0.183533E-01    0.160000E-02
    0.265033E-02    0.183533E-01    0.160000E-02
    0.000000E+00    0.189147E-01    0.160000E-02
    0.253324E-03    0.189147E-01    0.160000E-02
    0.509182E-03    0.189147E-01    0.160000E-02
    0.767598E-03    0.189147E-01    0.160000E-02
    0.102860E-02    0.189147E-01    0.160000E-02
    0.129221E-02    0.189147E-01    0.160000E-02
    0.155845E-02    0.189147E-01    0.160000E-02
    0.182736E-02    0.189147E-01    0.160000E-02
    0.209896E-02    0.189147E-01    0.160000E-02
    0.237327E-02    0.189147E-01    0.160000E-02
    0.265033E-02    0.189147E-01    0.160000E-02
    0.000000E+00    0.194929E-01    0.160000E-02
    0.253324E-03    0.194929E-01    0.160000E-02
    0.509182E-03    0.194929E-01    0.160000E-02
    0.767598E-03    0.194929E-01    0.160000E-02
    0.102860E-02    0.194929E-01    0.160000E-02
    0.129221E-02    0.194929E-01    0.160000E-02
    0.155845E-02    0.194929E-01    0.160000E-02
    0.182736E-02    0.194929E-01    0.160000E-02
    0.209896E-02    0.194929E-01    0.160000E-02
    0.237327E-02    0.194929E-01    0.160000E-02
    0.265033E-02    0.194929E-01    0.160000E-02
    0.000000E+00    0.200884E-01    0.160000E-02
    0.253324E-03    0.200884E-01    0.160000E-02
    0.509182E-03    0.200884E-01    0.160000E-02
    0.767598E-03    0.200884E-01    0.160000E-02
    0.102860E-02    0.200884E-01    0.160000E-02
    0.129221E-02    0.200884E-01    0.160000E-02
    0.155845E-02    0.200884E-01    0.160000E-02
    0.182736E-02    0.200884E-01    0.160000E-02
    0.209896E-02    0.200884E-01    0.160000E-02
    0.237327E-02    0.200884E-01    0.160000E-02
    0.265033E-02    0.200884E-01    0.160000E-02
    0.000000E+00    0.207018E-01    0.160000E-02
    0.253324E-03    0.207018E-01    0.160000E-02
    0.509182E-03    0.207018E-01    0.160000E-02
    0.767598E-03    0.207018E-01    0.160000E-02
    0.102860E-02    0.207018E-01    0.160000E-02
    0.129221E-02    0.207018E-01    0.160000E-02
    0.155845E-02    0.207018E-01    0.160000E-02
    0.182736E-02    0.207018E-01    0.160000E-02
    0.209896E-02    0.207018E-01    0.160000E-02
    0.237327E-02    0.207018E-01    0.160000E-02
    0.265033E-02    0.207018E-01    0.160000E-02
    0.000000E+00    0.213336E-01    0.160000E-02
    0.253324E-03    0.213336E-01    0.160000E-02
    0.509182E-03    0.213336E-01    0.160000E-02
    0.767598E-03    0.213336E-01    0.160000E-02
    0.102860E-02    0.213336E-01    0.160000E-02
    0.129221E-02    0.213336E-01    0.160000E-02
    0.155845E-02    0.213336E-01    0.160000E-02
    0.182736E-02    0.213336E-01    0.160000E-02
    0.209896E-02    0.213336E-01    0.160000E-02
    0.237327E-02    0.213336E-01    0.160000E-02
    0.265033E-02    0.213336E-01    0.160000E-02
    0.000000E+00    0.219843E-01    0.160000E-02
    0.253324E-03    0.219843E-01    0.160000E-02
    0.509182E-03    0.219843E-01    0.160000E-02
    0.767598E-03    0.219843E-01    0.160000E-02
    0.102860E-02    0.219843E-01    0.160000E-02
    0.129221E-02    0.219843E-01    0.160000E-02
    0.155845E-02    0.219843E-01    0.160000E-02
    0.182736E-02    0.219843E-01    0.160000E-02
    0.209896E-02    0.219843E-01    0.160000E-02
    0.237327E-02    0.219843E-01    0.160000E-02
    0.265033E-02    0.219843E-01    0.160000E-02
    0.000000E+00    0.226546E-01    0.160000E-02
    0.253324E-03    0.226546E-01    0.160000E-02
    0.509182E-03    0.226546E-01    0.160000E-02
    0.767598E-03    0.226546E-01    0.160000E-02
    0.102860E-02    0.226546E-01    0.160000E-02
    0.129221E-02    0.226546E-01    0.160000E-02
    0.155845E-02    0.226546E-01    0.160000E-02
    0.182736E-02    0.226546E-01    0.160000E-02
    0.209896E-02    0.226546E-01    0.160000E-02
    0.237327E-02    0.226546E-01    0.160000E-02
    0.265033E-02    0.226546E-01    0.160000E-02
</DataArray>
</Points>
<PointData>
<DataArray Name="Velocity" type="Float64" format="ascii" NumberOfComponents="3">
    0.890000E-01   -0.211767E-04    0.000000E+00
    0.889924E-01   -0.161970E-03    0.000000E+00
    0.889768E-01   -0.315482E-03    0.000000E+00
    0.889560E-01   -0.467269E-03    0.000000E+00
    0.889313E-01   -0.619846E-03    0.000000E+00
    0.889031E-01   -0.773985E-03    0.000000E+00
    0.888716E-01   -0.929777E-03    0.000000E+00
    0.888367E-01   -0.108704E-02    0.000000E+00
    0.887985E-01   -0.124550E-02    0.000000E+00
    0.887568E-01   -0.140481E-02    0.000000E+00
    0.887116E-01   -0.156462E-02    0.000000E+00
    0.890000E-01   -0.141568E-04    0.000000E+00
    0.889941E-01   -0.121808E-03    0.000000E+00
    0.889812E-01   -0.256819E-03    0.000000E+00
    0.889634E-01   -0.397841E-03    0.000000E+00
    0.889418E-01   -0.542008E-03    0.000000E+00
    0.889167E-01   -0.688126E-03    0.000000E+00
    0.888884E-01   -0.835646E-03    0.000000E+00
    0.888568E-01   -0.984249E-03    0.000000E+00
    0.888220E-01   -0.113369E-02    0.000000E+00
    0.887840E-01   -0.128371E-02    0.000000E+00
    0.887426E-01   -0.143406E-02    0.000000E+00
    0.890000E-01   -0.143557E-04    0.000000E+00
    0.890006E-01   -0.116764E-03    0.000000E+00
    0.889986E-01   -0.238497E-03    0.000000E+00
    0.889927E-01   -0.364780E-03    0.000000E+00
    0.889825E-01   -0.494794E-03    0.000000E+00
    0.889681E-01   -0.627739E-03    0.000000E+00
    0.889496E-01   -0.762958E-03    0.000000E+00
    0.889272E-01   -0.899922E-03    0.000000E+00
    0.889008E-01   -0.103819E-02    0.000000E+00
    0.888707E-01   -0.117739E-02    0.000000E+00
    0.888368E-01   -0.131716E-02    0.000000E+00
    0.890000E-01   -0.139024E-04    0.000000E+00
    0.889997E-01   -0.111812E-03    0.000000E+00
    0.889980E-01   -0.226040E-03    0.000000E+00
    0.889942E-01   -0.342848E-03    0.000000E+00
    0.889877E-01   -0.462212E-03    0.000000E+00
    0.889782E-01   -0.583932E-03    0.000000E+00
    0.889654E-01   -0.707723E-03    0.000000E+00
    0.889491E-01   -0.833259E-03    0.000000E+00
    0.889294E-01   -0.960206E-03    0.000000E+00
    0.889060E-01   -0.108823E-02    0.000000E+00
    0.888790E-01   -0.121698E-02    0.000000E+00
    0.890000E-01   -0.131496E-04    0.000000E+00
    0.889993E-01   -0.105611E-03    0.000000E+00
    0.889972E-01   -0.213049E-03    0.000000E+00
    0.889933E-01   -0.322284E-03    0.000000E+00
    0.889874E-01   -0.433318E-03    0.000000E+00
    0.889792E-01   -0.546080E-03    0.000000E+00
    0.889685E-01   -0.660431E-03    0.000000E+00
    0.889551E-01   -0.776184E-03    0.000000E+00
    0.889388E-01   -0.893118E-03    0.000000E+00
    0.889195E-01   -0.101098E-02    0.000000E+00
    0.888970E-01   -0.112950E-02    0.000000E+00
    0.890000E-01   -0.123416E-04    0.000000E+00
    0.889993E-01   -0.991029E-04    0.000000E+00
    0.889970E-01   -0.199818E-03    0.000000E+00
    0.889931E-01   -0.302009E-03    0.000000E+00
    0.889874E-01   -0.405622E-03    0.000000E+00
    0.889798E-01   -0.510574E-03    0.000000E+00
    0.889701E-01   -0.616749E-03    0.000000E+00
    0.889581E-01   -0.724001E-03    0.000000E+00
    0.889436E-01   -0.832153E-03    0.000000E+00
    0.889266E-01   -0.941004E-03    0.000000E+00
    0.889068E-01   -0.105033E-02    0.000000E+00
    0.890000E-01   -0.115548E-04    0.000000E+00
    0.889993E-01   -0.927708E-04    0.000000E+00
    0.889972E-01   -0.186996E-03    0.000000E+00
    0.889935E-01   -0.282499E-03    0.000000E+00
    0.889882E-01   -0.379185E-03    0.000000E+00
    0.889812E-01   -0.476950E-03    0.000000E+00
    0.889723E-01   -0.575671E-03    0.000000E+00
    0.889613E-01   -0.675210E-03    0.000000E+00
    0.889482E-01   -0.775406E-03    0.000000E+00
    0.889327E-01   -0.876083E-03    0.000000E+00
    0.889149E-01   -0.977042E-03    0.000000E+00
    0.890000E-01   -0.108195E-04    0.000000E+00
    0.889994E-01   -0.868501E-04    0.000000E+00
    0.889975E-01   -0.175002E-03    0.000000E+00
    0.889943E-01   -0.264240E-03    0.000000E+00
    0.889896E-01   -0.354441E-03    0.000000E+00
    0.889833E-01   -0.445481E-03    0.000000E+00
    0.889752E-01   -0.537235E-03    0.000000E+00
    0.889653E-01   -0.629569E-03    0.000000E+00
    0.889533E-01   -0.722340E-03    0.000000E+00
    0.889392E-01   -0.815389E-03    0.000000E+00
    0.889228E-01   -0.908543E-03    0.000000E+00
    0.890000E-01   -0.101672E-04    0.000000E+00
    0.889996E-01   -0.815737E-04    0.000000E+00
    0.889982E-01   -0.164231E-03    0.000000E+00
    0.889956E-01   -0.247683E-03    0.000000E+00
    0.889916E-01   -0.331782E-03    0.000000E+00
    0.889859E-01   -0.416413E-03    0.000000E+00
    0.889786E-01   -0.501476E-03    0.000000E+00
    0.889693E-01   -0.586874E-03    0.000000E+00
    0.889581E-01   -0.672496E-03    0.000000E+00
    0.889447E-01   -0.758219E-03    0.000000E+00
    0.889292E-01   -0.843903E-03    0.000000E+00
    0.890000E-01   -0.968945E-05    0.000000E+00
    0.890000E-01   -0.774268E-04    0.000000E+00
    0.889991E-01   -0.155200E-03    0.000000E+00
    0.889968E-01   -0.233051E-03    0.000000E+00
    0.889927E-01   -0.310986E-03    0.000000E+00
    0.889867E-01   -0.389053E-03    0.000000E+00
    0.889789E-01   -0.467282E-03    0.000000E+00
    0.889690E-01   -0.545669E-03    0.000000E+00
    0.889572E-01   -0.624170E-03    0.000000E+00
    0.889434E-01   -0.702703E-03    0.000000E+00
    0.889276E-01   -0.781158E-03    0.000000E+00
    0.890000E-01   -0.965016E-05    0.000000E+00
    0.889983E-01   -0.747548E-04    0.000000E+00
    0.889940E-01   -0.146563E-03    0.000000E+00
    0.889877E-01   -0.217267E-03    0.000000E+00
    0.889797E-01   -0.287792E-03    0.000000E+00
    0.889701E-01   -0.358546E-03    0.000000E+00
    0.889590E-01   -0.429673E-03    0.000000E+00
    0.889465E-01   -0.501173E-03    0.000000E+00
    0.889326E-01   -0.572970E-03    0.000000E+00
    0.889171E-01   -0.644946E-03    0.000000E+00
    0.889002E-01   -0.716955E-03    0.000000E+00
    0.890000E-01    0.000000E+00    0.000000E+00
    0.889942E-01   -0.161970E-03    0.396712E-19
    0.889809E-01   -0.315482E-03    0.772707E-19
    0.889623E-01   -0.467269E-03    0.114448E-18
    0.889393E-01   -0.619846E-03    0.151818E-18
    0.889123E-01   -0.773985E-03    0.189572E-18
    0.888816E-01   -0.929777E-03    0.227730E-18
    0.888472E-01   -0.108704E-02    0.266249E-18
    0.888092E-01   -0.124550E-02    0.305059E-18
    0.887675E-01   -0.140481E-02    0.344079E-18
    0.887221E-01   -0.156462E-02    0.383222E-18
    0.890000E-01    0.000000E+00    0.000000E+00
    0.889941E-01   -0.121808E-03    0.298345E-19
    0.889812E-01   -0.256819E-03    0.629025E-19
    0.889634E-01   -0.397841E-03    0.974430E-19
    0.889418E-01   -0.542008E-03    0.132754E-18
    0.889167E-01   -0.688126E-03    0.168542E-18
    0.888884E-01   -0.835646E-03    0.204674E-18
    0.888568E-01   -0.984249E-03    0.241072E-18
    0.888220E-01   -0.113369E-02    0.277673E-18
    0.887840E-01   -0.128371E-02    0.314419E-18
    0.887426E-01   -0.143406E-02    0.351243E-18
    0.890000E-01    0.000000E+00    0.000000E+00
    0.890006E-01   -0.116764E-03    0.285989E-19
    0.889986E-01   -0.238497E-03    0.584148E-19
    0.889927E-01   -0.364780E-03    0.893453E-19
    0.889825E-01   -0.494794E-03    0.121189E-18
    0.889681E-01   -0.627739E-03    0.153752E-18
    0.889496E-01   -0.762958E-03    0.186871E-18
    0.889272E-01   -0.899922E-03    0.220417E-18
    0.889008E-01   -0.103819E-02    0.254284E-18
    0.888707E-01   -0.117739E-02    0.288377E-18
    0.888368E-01   -0.131716E-02    0.322610E-18
    0.890000E-01    0.000000E+00    0.000000E+00
    0.889997E-01   -0.111812E-03    0.273861E-19
    0.889980E-01   -0.226040E-03    0.553639E-19
    0.889942E-01   -0.342848E-03    0.839735E-19
    0.889877E-01   -0.462212E-03    0.113209E-18
    0.889782E-01   -0.583932E-03    0.143022E-18
    0.889654E-01   -0.707723E-03    0.173342E-18
    0.889491E-01   -0.833259E-03    0.204090E-18
    0.889294E-01   -0.960206E-03    0.235183E-18
    0.889060E-01   -0.108823E-02    0.266539E-18
    0.888790E-01   -0.121698E-02    0.298075E-18
    0.890000E-01    0.000000E+00    0.000000E+00
    0.889993E-01   -0.105611E-03    0.258673E-19
    0.889972E-01   -0.213049E-03    0.521821E-19
    0.889933E-01   -0.322284E-03    0.789368E-19
    0.889874E-01   -0.433318E-03    0.106132E-18
    0.889792E-01   -0.546080E-03    0.133751E-18
    0.889685E-01   -0.660431E-03    0.161759E-18
    0.889551E-01   -0.776184E-03    0.190110E-18
    0.889388E-01   -0.893118E-03    0.218751E-18
    0.889195E-01   -0.101098E-02    0.247619E-18
    0.888970E-01   -0.112950E-02    0.276648E-18
    0.890000E-01    0.000000E+00    0.000000E+00
    0.889993E-01   -0.991029E-04    0.242732E-19
    0.889970E-01   -0.199818E-03    0.489412E-19
    0.889931E-01   -0.302009E-03    0.739708E-19
    0.889874E-01   -0.405622E-03    0.993488E-19
    0.889798E-01   -0.510574E-03    0.125055E-18
    0.889701E-01   -0.616749E-03    0.151060E-18
    0.889581E-01   -0.724001E-03    0.177329E-18
    0.889436E-01   -0.832153E-03    0.203819E-18
    0.889266E-01   -0.941004E-03    0.230480E-18
    0.889068E-01   -0.105033E-02    0.257257E-18
    0.890000E-01    0.000000E+00    0.000000E+00
    0.889993E-01   -0.927708E-04    0.227223E-19
    0.889972E-01   -0.186996E-03    0.458009E-19
    0.889935E-01   -0.282499E-03    0.691922E-19
    0.889882E-01   -0.379185E-03    0.928736E-19
    0.889812E-01   -0.476950E-03    0.116819E-18
    0.889723E-01   -0.575671E-03    0.140999E-18
    0.889613E-01   -0.675210E-03    0.165379E-18
    0.889482E-01   -0.775406E-03    0.189920E-18
    0.889327E-01   -0.876083E-03    0.214578E-18
    0.889149E-01   -0.977042E-03    0.239306E-18
    0.890000E-01    0.000000E+00    0.000000E+00
    0.889994E-01   -0.868501E-04    0.212721E-19
    0.889975E-01   -0.175002E-03    0.428631E-19
    0.889943E-01   -0.264240E-03    0.647202E-19
    0.889896E-01   -0.354441E-03    0.868130E-19
    0.889833E-01   -0.445481E-03    0.109111E-18
    0.889752E-01   -0.537235E-03    0.131585E-18
    0.889653E-01   -0.629569E-03    0.154200E-18
    0.889533E-01   -0.722340E-03    0.176922E-18
    0.889392E-01   -0.815389E-03    0.199713E-18
    0.889228E-01   -0.908543E-03    0.222529E-18
    0.890000E-01    0.000000E+00    0.000000E+00
    0.889996E-01   -0.815737E-04    0.199798E-19
    0.889982E-01   -0.164231E-03    0.402249E-19
    0.889956E-01   -0.247683E-03    0.606649E-19
    0.889916E-01   -0.331782E-03    0.812631E-19
    0.889859E-01   -0.416413E-03    0.101992E-18
    0.889786E-01   -0.501476E-03    0.122826E-18
    0.889693E-01   -0.586874E-03    0.143743E-18
    0.889581E-01   -0.672496E-03    0.164714E-18
    0.889447E-01   -0.758219E-03    0.185710E-18
    0.889292E-01   -0.843903E-03    0.206697E-18
    0.890000E-01    0.000000E+00    0.000000E+00
    0.890000E-01   -0.774268E-04    0.189641E-19
    0.889991E-01   -0.155200E-03    0.380130E-19
    0.889968E-01   -0.233051E-03    0.570811E-19
    0.889927E-01   -0.310986E-03    0.761697E-19
    0.889867E-01   -0.389053E-03    0.952905E-19
    0.889789E-01   -0.467282E-03    0.114451E-18
    0.889690E-01   -0.545669E-03    0.133650E-18
    0.889572E-01   -0.624170E-03    0.152877E-18
    0.889434E-01   -0.702703E-03    0.172113E-18
    0.889276E-01   -0.781158E-03    0.191329E-18
    0.890000E-01    0.000000E+00    0.000000E+00
    0.889983E-01   -0.747548E-04    0.183096E-19
    0.889940E-01   -0.146563E-03    0.358976E-19
    0.889877E-01   -0.217267E-03    0.532152E-19
    0.889797E-01   -0.287792E-03    0.704887E-19
    0.889701E-01   -0.358546E-03    0.878185E-19
    0.889590E-01   -0.429673E-03    0.105240E-18
    0.889465E-01   -0.501173E-03    0.122752E-18
    0.889326E-01   -0.572970E-03    0.140337E-18
    0.889171E-01   -0.644946E-03    0.157966E-18
    0.889002E-01   -0.716955E-03    0.175603E-18
</DataArray>
</PointData>
<CellData>
<DataArray Name="DP" type="Float64" format="ascii" NumberOfComponents="1">
      0.000000E+0000
      0.000000E+0000
      0.000000E+0000
      0.000000E+0000
      0.000000E+0000
      0.000000E+0000
      0.000000E+0000
      0.000000E+0000
      0.000000E+0000
      0.000000E+0000
      0.000000E+0000
      0.000000E+0000
      0.000000E+0000
      0.000000E+0000
      0.000000E+0000
      0.000000E+0000
      0.000000E+0000
      0.000000E+0000
      0.000000E+0000
      0.000000E+0000
      0.000000E+0000
      0.000000E+0000
      0.000000E+0000
      0.000000E+0000
      0.000000E+0000
      0.000000E+0000
      0.000000E+0000
      0.000000E+0000
      0.000000E+0000
      0.000000E+0000
      0.000000E+0000
      0.000000E+0000
      0.000000E+0000
      0.000000E+0000
      0.000000E+0000
      0.000000E+0000
      0.000000E+0000
      0.000000E+0000
      0.000000E+0000
      0.000000E+0000
      0.000000E+0000
      0.000000E+0000
      0.000000E+0000
      0.000000E+0000
      0.000000E+0000
      0.000000E+0000
      0.000000E+0000
      0.000000E+0000
      0.000000E+0000
      0.000000E+0000
      0.000000E+0000
      0.000000E+0000
      0.000000E+0000
      0.000000E+0000
      0.000000E+0000
      0.000000E+0000
      0.000000E+0000
      0.000000E+0000
      0.000000E+0000
      0.000000E+0000
      0.000000E+0000
      0.000000E+0000
      0.000000E+0000
      0.000000E+0000
      0.000000E+0000
      0.000000E+0000
      0.000000E+0000
      0.000000E+0000
      0.000000E+0000
      0.000000E+0000
      0.000000E+0000
      0.000000E+0000
      0.000000E+0000
      0.000000E+0000
      0.000000E+0000
      0.000000E+0000
      0.000000E+0000
      0.000000E+0000
      0.000000E+0000
      0.000000E+0000
      0.000000E+0000
      0.000000E+0000
      0.000000E+0000
      0.000000E+0000
      0.000000E+0000
      0.000000E+0000
      0.000000E+0000
      0.000000E+0000
      0.000000E+0000
      0.000000E+0000
      0.000000E+0000
      0.000000E+0000
      0.000000E+0000
      0.000000E+0000
      0.000000E+0000
      0.000000E+0000
      0.000000E+0000
      0.000000E+0000
      0.000000E+0000
      0.000000E+0000
</DataArray>
<DataArray Name="P" type="Float64" format="ascii" NumberOfComponents="1">
      0.630950E+0000
      0.628019E+0000
      0.625061E+0000
      0.622074E+0000
      0.619059E+0000
      0.616013E+0000
      0.612938E+0000
      0.609833E+0000
      0.606697E+0000
      0.603530E+0000
      0.630975E+0000
      0.628047E+0000
      0.625090E+0000
      0.622105E+0000
      0.619089E+0000
      0.616044E+0000
      0.612969E+0000
      0.609863E+0000
      0.606727E+0000
      0.603559E+0000
      0.631002E+0000
      0.628075E+0000
      0.625119E+0000
      0.622133E+0000
      0.619118E+0000
      0.616073E+0000
      0.612998E+0000
      0.609892E+0000
      0.606755E+0000
      0.603588E+0000
      0.631029E+0000
      0.628102E+0000
      0.625146E+0000
      0.622161E+0000
      0.619146E+0000
      0.616101E+0000
      0.613025E+0000
      0.609919E+0000
      0.606783E+0000
      0.603615E+0000
      0.631056E+0000
      0.628129E+0000
      0.625173E+0000
      0.622187E+0000
      0.619172E+0000
      0.616127E+0000
      0.613052E+0000
      0.609946E+0000
      0.606809E+0000
      0.603642E+0000
      0.631082E+0000
      0.628155E+0000
      0.625199E+0000
      0.622213E+0000
      0.619198E+0000
      0.616153E+0000
      0.613078E+0000
      0.609972E+0000
      0.606835E+0000
      0.603667E+0000
      0.631107E+0000
      0.628180E+0000
      0.625224E+0000
      0.622238E+0000
      0.619223E+0000
      0.616178E+0000
      0.613102E+0000
      0.609996E+0000
      0.606859E+0000
      0.603691E+0000
      0.631131E+0000
      0.628204E+0000
      0.625248E+0000
      0.622262E+0000
      0.619247E+0000
      0.616202E+0000
      0.613126E+0000
      0.610020E+0000
      0.606883E+0000
      0.603715E+0000
      0.631155E+0000
      0.628228E+0000
      0.625271E+0000
      0.622286E+0000
      0.619271E+0000
      0.616225E+0000
      0.613150E+0000
      0.610043E+0000
      0.606906E+0000
      0.603738E+0000
      0.631178E+0000
      0.628251E+0000
      0.625294E+0000
      0.622309E+0000
      0.619293E+0000
      0.616248E+0000
      0.613172E+0000
      0.610065E+0000
      0.606928E+0000
      0.603760E+0000
</DataArray>
<DataArray Name="RHO" type="Float64" format="ascii" NumberOfComponents="1">
      0.117197E+0001
      0.117197E+0001
      0.117197E+0001
      0.117197E+0001
      0.117197E+0001
      0.117197E+0001
      0.117197E+0001
      0.117197E+0001
      0.117197E+0001
      0.117197E+0001
      0.117197E+0001
      0.117197E+0001
      0.117197E+0001
      0.117197E+0001
      0.117197E+0001
      0.117197E+0001
      0.117197E+0001
      0.117197E+0001
      0.117197E+0001
      0.117197E+0001
      0.117197E+0001
      0.117197E+0001
      0.117197E+0001
      0.117197E+0001
      0.117197E+0001
      0.117197E+0001
      0.117197E+0001
      0.117197E+0001
      0.117197E+0001
      0.117197E+0001
      0.117197E+0001
      0.117197E+0001
      0.117197E+0001
      0.117197E+0001
      0.117197E+0001
      0.117197E+0001
      0.117197E+0001
      0.117197E+0001
      0.117197E+0001
      0.117197E+0001
      0.117197E+0001
      0.117197E+0001
      0.117197E+0001
      0.117197E+0001
      0.117197E+0001
      0.117197E+0001
      0.117197E+0001
      0.117197E+0001
      0.117197E+0001
      0.117197E+0001
      0.117197E+0001
      0.117197E+0001
      0.117197E+0001
      0.117197E+0001
      0.117197E+0001
      0.117197E+0001
      0.117197E+0001
      0.117197E+0001
      0.117197E+0001
      0.117197E+0001
      0.117197E+0001
      0.117197E+0001