<?xml version="1.0"?>
<VTKFile type="StructuredGrid" version="0.1" byte_order="LittleEndian">
<StructuredGrid WholeExtent="          20          30          60          70           0           1">
<Piece Extent="          20          30          60          70           0           1">
<Points>
<DataArray NumberOfComponents="3" type="Float64" format="ascii">
    0.557795E-02    0.167655E-01    0.000000E+00
    0.588705E-02    0.167655E-01    0.000000E+00
    0.619924E-02    0.167655E-01    0.000000E+00
    0.651456E-02    0.167655E-01    0.000000E+00
    0.683303E-02    0.167655E-01    0.000000E+00
    0.715469E-02    0.167655E-01    0.000000E+00
    0.747956E-02    0.167655E-01    0.000000E+00
    0.780768E-02    0.167655E-01    0.000000E+00
    0.813908E-02    0.167655E-01    0.000000E+00
    0.847379E-02    0.167655E-01    0.000000E+00
    0.881185E-02    0.167655E-01    0.000000E+00
    0.557795E-02    0.172792E-01    0.000000E+00
    0.588705E-02    0.172792E-01    0.000000E+00
    0.619924E-02    0.172792E-01    0.000000E+00
    0.651456E-02    0.172792E-01    0.000000E+00
    0.683303E-02    0.172792E-01    0.000000E+00
    0.715469E-02    0.172792E-01    0.000000E+00
    0.747956E-02    0.172792E-01    0.000000E+00
    0.780768E-02    0.172792E-01    0.000000E+00
    0.813908E-02    0.172792E-01    0.000000E+00
    0.847379E-02    0.172792E-01    0.000000E+00
    0.881185E-02    0.172792E-01    0.000000E+00
    0.557795E-02    0.178083E-01    0.000000E+00
    0.588705E-02    0.178083E-01    0.000000E+00
    0.619924E-02    0.178083E-01    0.000000E+00
    0.651456E-02    0.178083E-01    0.000000E+00
    0.683303E-02    0.178083E-01    0.000000E+00
    0.715469E-02    0.178083E-01    0.000000E+00
    0.747956E-02    0.178083E-01    0.000000E+00
    0.780768E-02    0.178083E-01    0.000000E+00
    0.813908E-02    0.178083E-01    0.000000E+00
    0.847379E-02    0.178083E-01    0.000000E+00
    0.881185E-02    0.178083E-01    0.000000E+00
    0.557795E-02    0.183533E-01    0.000000E+00
    0.588705E-02    0.183533E-01    0.000000E+00
    0.619924E-02    0.183533E-01    0.000000E+00
    0.651456E-02    0.183533E-01    0.000000E+00
    0.683303E-02    0.183533E-01    0.000000E+00
    0.715469E-02    0.183533E-01    0.000000E+00
    0.747956E-02    0.183533E-01    0.000000E+00
    0.780768E-02    0.183533E-01    0.000000E+00
    0.813908E-02    0.183533E-01    0.000000E+00
    0.847379E-02    0.183533E-01    0.000000E+00
    0.881185E-02    0.183533E-01    0.000000E+00
    0.557795E-02    0.189147E-01    0.000000E+00
    0.588705E-02    0.189147E-01    0.000000E+00
    0.619924E-02    0.189147E-01    0.000000E+00
    0.651456E-02    0.189147E-01    0.000000E+00
    0.683303E-02    0.189147E-01    0.000000E+00
    0.715469E-02    0.189147E-01    0.000000E+00
    0.747956E-02    0.189147E-01    0.000000E+00
    0.780768E-02    0.189147E-01    0.000000E+00
    0.813908E-02    0.189147E-01    0.000000E+00
    0.847379E-02    0.189147E-01    0.000000E+00
    0.881185E-02    0.189147E-01    0.000000E+00
    0.557795E-02    0.194929E-01    0.000000E+00
    0.588705E-02    0.194929E-01    0.000000E+00
    0.619924E-02    0.194929E-01    0.000000E+00
    0.651456E-02    0.194929E-01    0.000000E+00
    0.683303E-02    0.194929E-01    0.000000E+00
    0.715469E-02    0.194929E-01    0.000000E+00
    0.747956E-02    0.194929E-01    0.000000E+00
    0.780768E-02    0.194929E-01    0.000000E+00
    0.813908E-02    0.194929E-01    0.000000E+00
    0.847379E-02    0.194929E-01    0.000000E+00
    0.881185E-02    0.194929E-01    0.000000E+00
    0.557795E-02    0.200884E-01    0.000000E+00
    0.588705E-02    0.200884E-01    0.000000E+00
    0.619924E-02    0.200884E-01    0.000000E+00
    0.651456E-02    0.200884E-01    0.000000E+00
    0.683303E-02    0.200884E-01    0.000000E+00
    0.715469E-02    0.200884E-01    0.000000E+00
    0.747956E-02    0.200884E-01    0.000000E+00
    0.780768E-02    0.200884E-01    0.000000E+00
    0.813908E-02    0.200884E-01    0.000000E+00
    0.847379E-02    0.200884E-01    0.000000E+00
    0.881185E-02    0.200884E-01    0.000000E+00
    0.557795E-02    0.207018E-01    0.000000E+00
    0.588705E-02    0.207018E-01    0.000000E+00
    0.619924E-02    0.207018E-01    0.000000E+00
    0.651456E-02    0.207018E-01    0.000000E+00
    0.683303E-02    0.207018E-01    0.000000E+00
    0.715469E-02    0.207018E-01    0.000000E+00
    0.747956E-02    0.207018E-01    0.000000E+00
    0.780768E-02    0.207018E-01    0.000000E+00
    0.813908E-02    0.207018E-01    0.000000E+00
    0.847379E-02    0.207018E-01    0.000000E+00
    0.881185E-02    0.207018E-01    0.000000E+00
    0.557795E-02    0.213336E-01    0.000000E+00
    0.588705E-02    0.213336E-01    0.000000E+00
    0.619924E-02    0.213336E-01    0.000000E+00
    0.651456E-02    0.213336E-01    0.000000E+00
    0.683303E-02    0.213336E-01    0.000000E+00
    0.715469E-02    0.213336E-01    0.000000E+00
    0.747956E-02    0.213336E-01    0.000000E+00
    0.780768E-02    0.213336E-01    0.000000E+00
    0.813908E-02    0.213336E-01    0.000000E+00
    0.847379E-02    0.213336E-01    0.000000E+00
    0.881185E-02    0.213336E-01    0.000000E+00
    0.557795E-02    0.219843E-01    0.000000E+00
    0.588705E-02    0.219843E-01    0.000000E+00
    0.619924E-02    0.219843E-01    0.000000E+00
    0.651456E-02    0.219843E-01    0.000000E+00
    0.683303E-02    0.219843E-01    0.000000E+00
    0.715469E-02    0.219843E-01    0.000000E+00
    0.747956E-02    0.219843E-01    0.000000E+00
    0.780768E-02    0.219843E-01    0.000000E+00
    0.813908E-02    0.219843E-01    0.000000E+00
    0.847379E-02    0.219843E-01    0.000000E+00
    0.881185E-02    0.219843E-01    0.000000E+00
    0.557795E-02    0.226546E-01    0.000000E+00
    0.588705E-02    0.226546E-01    0.000000E+00
    0.619924E-02    0.226546E-01    0.000000E+00
    0.651456E-02    0.226546E-01    0.000000E+00
    0.683303E-02    0.226546E-01    0.000000E+00
    0.715469E-02    0.226546E-01    0.000000E+00
    0.747956E-02    0.226546E-01    0.000000E+00
    0.780768E-02    0.226546E-01    0.000000E+00
    0.813908E-02    0.226546E-01    0.000000E+00
    0.847379E-02    0.226546E-01    0.000000E+00
    0.881185E-02    0.226546E-01    0.000000E+00
    0.557795E-02    0.167655E-01    0.160000E-02
    0.588705E-02    0.167655E-01    0.160000E-02
    0.619924E-02    0.167655E-01    0.160000E-02
    0.651456E-02    0.167655E-01    0.160000E-02
    0.683303E-02    0.167655E-01    0.160000E-02
    0.715469E-02    0.167655E-01    0.160000E-02
    0.747956E-02    0.167655E-01    0.160000E-02
    0.780768E-02    0.167655E-01    0.160000E-02
    0.813908E-02    0.167655E-01    0.160000E-02
    0.847379E-02    0.167655E-01    0.160000E-02
    0.881185E-02    0.167655E-01    0.160000E-02
    0.557795E-02    0.172792E-01    0.160000E-02
    0.588705E-02    0.172792E-01    0.160000E-02
    0.619924E-02    0.172792E-01    0.160000E-02
    0.651456E-02    0.172792E-01    0.160000E-02
    0.683303E-02    0.172792E-01    0.160000E-02
    0.715469E-02    0.172792E-01    0.160000E-02
    0.747956E-02    0.172792E-01    0.160000E-02
    0.780768E-02    0.172792E-01    0.160000E-02
    0.813908E-02    0.172792E-01    0.160000E-02
    0.847379E-02    0.172792E-01    0.160000E-02
    0.881185E-02    0.172792E-01    0.160000E-02
    0.557795E-02    0.178083E-01    0.160000E-02
    0.588705E-02    0.178083E-01    0.160000E-02
    0.619924E-02    0.178083E-01    0.160000E-02
    0.651456E-02    0.178083E-01    0.160000E-02
    0.683303E-02    0.178083E-01    0.160000E-02
    0.715469E-02    0.178083E-01    0.160000E-02
    0.747956E-02    0.178083E-01    0.160000E-02
    0.780768E-02    0.178083E-01    0.160000E-02
    0.813908E-02    0.178083E-01    0.160000E-02
    0.847379E-02    0.178083E-01    0.160000E-02
    0.881185E-02    0.178083E-01    0.160000E-02
    0.557795E-02    0.183533E-01    0.160000E-02
    0.588705E-02    0.183533E-01    0.160000E-02
    0.619924E-02    0.183533E-01    0.160000E-02
    0.651456E-02    0.183533E-01    0.160000E-02
    0.683303E-02    0.183533E-01    0.160000E-02
    0.715469E-02    0.183533E-01    0.160000E-02
    0.747956E-02    0.183533E-01    0.160000E-02
    0.780768E-02    0.183533E-01    0.160000E-02
    0.813908E-02    0.183533E-01    0.160000E-02
    0.847379E-02    0.183533E-01    0.160000E-02
    0.881185E-02    0.183533E-01    0.160000E-02
    0.557795E-02    0.189147E-01    0.160000E-02
    0.588705E-02    0.189147E-01    0.160000E-02
    0.619924E-02    0.189147E-01    0.160000E-02
    0.651456E-02    0.189147E-01    0.160000E-02
    0.683303E-02    0.189147E-01    0.160000E-02
    0.715469E-02    0.189147E-01    0.160000E-02
    0.747956E-02    0.189147E-01    0.160000E-02
    0.780768E-02    0.189147E-01    0.160000E-02
    0.813908E-02    0.189147E-01    0.160000E-02
    0.847379E-02    0.189147E-01    0.160000E-02
    0.881185E-02    0.189147E-01    0.160000E-02
    0.557795E-02    0.194929E-01    0.160000E-02
    0.588705E-02    0.194929E-01    0.160000E-02
    0.619924E-02    0.194929E-01    0.160000E-02
    0.651456E-02    0.194929E-01    0.160000E-02
    0.683303E-02    0.194929E-01    0.160000E-02
    0.715469E-02    0.194929E-01    0.160000E-02
    0.747956E-02    0.194929E-01    0.160000E-02
    0.780768E-02    0.194929E-01    0.160000E-02
    0.813908E-02    0.194929E-01    0.160000E-02
    0.847379E-02    0.194929E-01    0.160000E-02
    0.881185E-02    0.194929E-01    0.160000E-02
    0.557795E-02    0.200884E-01    0.160000E-02
    0.588705E-02    0.200884E-01    0.160000E-02
    0.619924E-02    0.200884E-01    0.160000E-02
    0.651456E-02    0.200884E-01    0.160000E-02
    0.683303E-02    0.200884E-01    0.160000E-02
    0.715469E-02    0.200884E-01    0.160000E-02
    0.747956E-02    0.200884E-01    0.160000E-02
    0.780768E-02    0.200884E-01    0.160000E-02
    0.813908E-02    0.200884E-01    0.160000E-02
    0.847379E-02    0.200884E-01    0.160000E-02
    0.881185E-02    0.200884E-01    0.160000E-02
    0.557795E-02    0.207018E-01    0.160000E-02
    0.588705E-02    0.207018E-01    0.160000E-02
    0.619924E-02    0.207018E-01    0.160000E-02
    0.651456E-02    0.207018E-01    0.160000E-02
    0.683303E-02    0.207018E-01    0.160000E-02
    0.715469E-02    0.207018E-01    0.160000E-02
    0.747956E-02    0.207018E-01    0.160000E-02
    0.780768E-02    0.207018E-01    0.160000E-02
    0.813908E-02    0.207018E-01    0.160000E-02
    0.847379E-02    0.207018E-01    0.160000E-02
    0.881185E-02    0.207018E-01    0.160000E-02
    0.557795E-02    0.213336E-01    0.160000E-02
    0.588705E-02    0.213336E-01    0.160000E-02
    0.619924E-02    0.213336E-01    0.160000E-02
    0.651456E-02    0.213336E-01    0.160000E-02
    0.683303E-02    0.213336E-01    0.160000E-02
    0.715469E-02    0.213336E-01    0.160000E-02
    0.747956E-02    0.213336E-01    0.160000E-02
    0.780768E-02    0.213336E-01    0.160000E-02
    0.813908E-02    0.213336E-01    0.160000E-02
    0.847379E-02    0.213336E-01    0.160000E-02
    0.881185E-02    0.213336E-01    0.160000E-02
    0.557795E-02    0.219843E-01    0.160000E-02
    0.588705E-02    0.219843E-01    0.160000E-02
    0.619924E-02    0.219843E-01    0.160000E-02
    0.651456E-02    0.219843E-01    0.160000E-02
    0.683303E-02    0.219843E-01    0.160000E-02
    0.715469E-02    0.219843E-01    0.160000E-02
    0.747956E-02    0.219843E-01    0.160000E-02
    0.780768E-02    0.219843E-01    0.160000E-02
    0.813908E-02    0.219843E-01    0.160000E-02
    0.847379E-02    0.219843E-01    0.160000E-02
    0.881185E-02    0.219843E-01    0.160000E-02
    0.557795E-02    0.226546E-01    0.160000E-02
    0.588705E-02    0.226546E-01    0.160000E-02
    0.619924E-02    0.226546E-01    0.160000E-02
    0.651456E-02    0.226546E-01    0.160000E-02
    0.683303E-02    0.226546E-01    0.160000E-02
    0.715469E-02    0.226546E-01    0.160000E-02
    0.747956E-02    0.226546E-01    0.160000E-02
    0.780768E-02    0.226546E-01    0.160000E-02
    0.813908E-02    0.226546E-01    0.160000E-02
    0.847379E-02    0.226546E-01    0.160000E-02
    0.881185E-02    0.226546E-01    0.160000E-02
</DataArray>
</Points>
<PointData>
<DataArray Name="Velocity" type="Float64" format="ascii" NumberOfComponents="3">
    0.878859E-01   -0.274708E-02    0.000000E+00
    0.877862E-01   -0.280680E-02    0.000000E+00
    0.876836E-01   -0.286477E-02    0.000000E+00
    0.875785E-01   -0.291109E-02    0.000000E+00
    0.874715E-01   -0.294525E-02    0.000000E+00
    0.873630E-01   -0.296677E-02    0.000000E+00
    0.872536E-01   -0.297524E-02    0.000000E+00
    0.871438E-01   -0.297028E-02    0.000000E+00
    0.870343E-01   -0.295160E-02    0.000000E+00
    0.869257E-01   -0.291898E-02    0.000000E+00
    0.868189E-01   -0.287227E-02    0.000000E+00
    0.879849E-01   -0.251460E-02    0.000000E+00
    0.878937E-01   -0.256999E-02    0.000000E+00
    0.878000E-01   -0.262393E-02    0.000000E+00
    0.877040E-01   -0.266725E-02    0.000000E+00
    0.876063E-01   -0.269951E-02    0.000000E+00
    0.875073E-01   -0.272030E-02    0.000000E+00
    0.874075E-01   -0.272925E-02    0.000000E+00
    0.873073E-01   -0.272604E-02    0.000000E+00
    0.872075E-01   -0.271042E-02    0.000000E+00
    0.871086E-01   -0.268220E-02    0.000000E+00
    0.870113E-01   -0.264127E-02    0.000000E+00
    0.881300E-01   -0.229031E-02    0.000000E+00
    0.880439E-01   -0.234137E-02    0.000000E+00
    0.879551E-01   -0.239126E-02    0.000000E+00
    0.878642E-01   -0.243156E-02    0.000000E+00
    0.877715E-01   -0.246189E-02    0.000000E+00
    0.876774E-01   -0.248189E-02    0.000000E+00
    0.875824E-01   -0.249125E-02    0.000000E+00
    0.874871E-01   -0.248968E-02    0.000000E+00
    0.873921E-01   -0.247699E-02    0.000000E+00
    0.872978E-01   -0.245301E-02    0.000000E+00
    0.872050E-01   -0.241764E-02    0.000000E+00
    0.882461E-01   -0.208001E-02    0.000000E+00
    0.881674E-01   -0.212664E-02    0.000000E+00
    0.880861E-01   -0.217235E-02    0.000000E+00
    0.880027E-01   -0.220948E-02    0.000000E+00
    0.879173E-01   -0.223769E-02    0.000000E+00
    0.878306E-01   -0.225669E-02    0.000000E+00
    0.877430E-01   -0.226619E-02    0.000000E+00
    0.876548E-01   -0.226596E-02    0.000000E+00
    0.875668E-01   -0.225584E-02    0.000000E+00
    0.874794E-01   -0.223568E-02    0.000000E+00
    0.873932E-01   -0.220543E-02    0.000000E+00
    0.883377E-01   -0.188644E-02    0.000000E+00
    0.882673E-01   -0.192863E-02    0.000000E+00
    0.881943E-01   -0.197010E-02    0.000000E+00
    0.881192E-01   -0.200394E-02    0.000000E+00
    0.880423E-01   -0.202988E-02    0.000000E+00
    0.879640E-01   -0.204764E-02    0.000000E+00
    0.878847E-01   -0.205700E-02    0.000000E+00
    0.878048E-01   -0.205776E-02    0.000000E+00
    0.877249E-01   -0.204977E-02    0.000000E+00
    0.876454E-01   -0.203294E-02    0.000000E+00
    0.875669E-01   -0.200720E-02    0.000000E+00
    0.884122E-01   -0.170976E-02    0.000000E+00
    0.883495E-01   -0.174769E-02    0.000000E+00
    0.882846E-01   -0.178504E-02    0.000000E+00
    0.882177E-01   -0.181565E-02    0.000000E+00
    0.881491E-01   -0.183927E-02    0.000000E+00
    0.880791E-01   -0.185568E-02    0.000000E+00
    0.880081E-01   -0.186468E-02    0.000000E+00
    0.879366E-01   -0.186611E-02    0.000000E+00
    0.878649E-01   -0.185987E-02    0.000000E+00
    0.877936E-01   -0.184586E-02    0.000000E+00
    0.877230E-01   -0.182407E-02    0.000000E+00
    0.884751E-01   -0.154876E-02    0.000000E+00
    0.884195E-01   -0.158273E-02    0.000000E+00
    0.883618E-01   -0.161625E-02    0.000000E+00
    0.883023E-01   -0.164381E-02    0.000000E+00
    0.882413E-01   -0.166521E-02    0.000000E+00
    0.881790E-01   -0.168026E-02    0.000000E+00
    0.881158E-01   -0.168880E-02    0.000000E+00
    0.880521E-01   -0.169072E-02    0.000000E+00
    0.879882E-01   -0.168591E-02    0.000000E+00
    0.879245E-01   -0.167433E-02    0.000000E+00
    0.878614E-01   -0.165595E-02    0.000000E+00
    0.885296E-01   -0.140179E-02    0.000000E+00
    0.884800E-01   -0.143218E-02    0.000000E+00
    0.884287E-01   -0.146223E-02    0.000000E+00
    0.883757E-01   -0.148702E-02    0.000000E+00
    0.883214E-01   -0.150638E-02    0.000000E+00
    0.882660E-01   -0.152017E-02    0.000000E+00
    0.882099E-01   -0.152826E-02    0.000000E+00
    0.881532E-01   -0.153054E-02    0.000000E+00
    0.880963E-01   -0.152696E-02    0.000000E+00
    0.880396E-01   -0.151748E-02    0.000000E+00
    0.879835E-01   -0.150208E-02    0.000000E+00
    0.885756E-01   -0.126729E-02    0.000000E+00
    0.885314E-01   -0.129452E-02    0.000000E+00
    0.884856E-01   -0.132150E-02    0.000000E+00
    0.884385E-01   -0.134385E-02    0.000000E+00
    0.883903E-01   -0.136144E-02    0.000000E+00
    0.883411E-01   -0.137413E-02    0.000000E+00
    0.882913E-01   -0.138183E-02    0.000000E+00
    0.882411E-01   -0.138447E-02    0.000000E+00
    0.881908E-01   -0.138198E-02    0.000000E+00
    0.881405E-01   -0.137434E-02    0.000000E+00
    0.880908E-01   -0.136157E-02    0.000000E+00
    0.886106E-01   -0.114423E-02    0.000000E+00
    0.885715E-01   -0.116876E-02    0.000000E+00
    0.885311E-01   -0.119316E-02    0.000000E+00
    0.884897E-01   -0.121348E-02    0.000000E+00
    0.884473E-01   -0.122960E-02    0.000000E+00
    0.884043E-01   -0.124143E-02    0.000000E+00
    0.883607E-01   -0.124887E-02    0.000000E+00
    0.883168E-01   -0.125188E-02    0.000000E+00
    0.882728E-01   -0.125040E-02    0.000000E+00
    0.882289E-01   -0.124442E-02    0.000000E+00
    0.881854E-01   -0.123395E-02    0.000000E+00
    0.886314E-01   -0.103303E-02    0.000000E+00
    0.885981E-01   -0.105540E-02    0.000000E+00
    0.885638E-01   -0.107773E-02    0.000000E+00
    0.885287E-01   -0.109644E-02    0.000000E+00
    0.884929E-01   -0.111144E-02    0.000000E+00
    0.884566E-01   -0.112263E-02    0.000000E+00
    0.884198E-01   -0.112995E-02    0.000000E+00
    0.883829E-01   -0.113335E-02    0.000000E+00
    0.883458E-01   -0.113279E-02    0.000000E+00
    0.883089E-01   -0.112825E-02    0.000000E+00
    0.882722E-01   -0.111976E-02    0.000000E+00
    0.878792E-01   -0.273773E-02    0.670549E-18
    0.877771E-01   -0.280680E-02    0.687467E-18
    0.876721E-01   -0.286477E-02    0.701666E-18
    0.875646E-01   -0.291109E-02    0.713011E-18
    0.874551E-01   -0.294525E-02    0.721377E-18
    0.873440E-01   -0.296677E-02    0.726649E-18
    0.872319E-01   -0.297524E-02    0.728723E-18
    0.871194E-01   -0.297028E-02    0.727509E-18
    0.870072E-01   -0.295160E-02    0.722935E-18
    0.868960E-01   -0.291898E-02    0.714944E-18
    0.867864E-01   -0.287227E-02    0.703504E-18
    0.879849E-01   -0.250593E-02    0.613777E-18
    0.878937E-01   -0.256999E-02    0.629467E-18
    0.878000E-01   -0.262393E-02    0.642677E-18
    0.877040E-01   -0.266725E-02    0.653288E-18
    0.876063E-01   -0.269951E-02    0.661189E-18
    0.875073E-01   -0.272030E-02    0.666281E-18
    0.874075E-01   -0.272925E-02    0.668473E-18
    0.873073E-01   -0.272604E-02    0.667687E-18
    0.872075E-01   -0.271042E-02    0.663862E-18
    0.871086E-01   -0.268220E-02    0.656950E-18
    0.870113E-01   -0.264127E-02    0.646925E-18
    0.881300E-01   -0.228233E-02    0.559010E-18
    0.880439E-01   -0.234137E-02    0.573471E-18
    0.879551E-01   -0.239126E-02    0.585689E-18
    0.878642E-01   -0.243156E-02    0.595561E-18
    0.877715E-01   -0.246189E-02    0.602990E-18
    0.876774E-01   -0.248189E-02    0.607888E-18
    0.875824E-01   -0.249125E-02    0.610179E-18
    0.874871E-01   -0.248968E-02    0.609797E-18
    0.873921E-01   -0.247699E-02    0.606687E-18
    0.872978E-01   -0.245301E-02    0.600813E-18
    0.872050E-01   -0.241764E-02    0.592152E-18
    0.882461E-01   -0.207274E-02    0.507675E-18
    0.881674E-01   -0.212664E-02    0.520877E-18
    0.880861E-01   -0.217235E-02    0.532071E-18
    0.880027E-01   -0.220948E-02    0.541166E-18
    0.879173E-01   -0.223769E-02    0.548077E-18
    0.878306E-01   -0.225669E-02    0.552729E-18
    0.877430E-01   -0.226619E-02    0.555055E-18
    0.876548E-01   -0.226596E-02    0.555001E-18
    0.875668E-01   -0.225584E-02    0.552521E-18
    0.874794E-01   -0.223568E-02    0.547585E-18
    0.873932E-01   -0.220543E-02    0.540174E-18
    0.883377E-01   -0.187987E-02    0.460435E-18
    0.882673E-01   -0.192863E-02    0.472378E-18
    0.881943E-01   -0.197010E-02    0.482534E-18
    0.881192E-01   -0.200394E-02    0.490825E-18
    0.880423E-01   -0.202988E-02    0.497178E-18
    0.879640E-01   -0.204764E-02    0.501528E-18
    0.878847E-01   -0.205700E-02    0.503819E-18
    0.878048E-01   -0.205776E-02    0.504005E-18
    0.877249E-01   -0.204977E-02    0.502049E-18
    0.876454E-01   -0.203294E-02    0.497925E-18
    0.875669E-01   -0.200720E-02    0.491623E-18
    0.884122E-01   -0.170386E-02    0.417326E-18
    0.883495E-01   -0.174769E-02    0.428060E-18
    0.882846E-01   -0.178504E-02    0.437209E-18
    0.882177E-01   -0.181565E-02    0.444706E-18
    0.881491E-01   -0.183927E-02    0.450491E-18
    0.880791E-01   -0.185568E-02    0.454509E-18
    0.880081E-01   -0.186468E-02    0.456714E-18
    0.879366E-01   -0.186611E-02    0.457066E-18
    0.878649E-01   -0.185987E-02    0.455536E-18
    0.877936E-01   -0.184586E-02    0.452106E-18
    0.877230E-01   -0.182407E-02    0.446768E-18
    0.884751E-01   -0.154348E-02    0.378044E-18
    0.884195E-01   -0.158273E-02    0.387658E-18
    0.883618E-01   -0.161625E-02    0.395867E-18
    0.883023E-01   -0.164381E-02    0.402618E-18
    0.882413E-01   -0.166521E-02    0.407858E-18
    0.881790E-01   -0.168026E-02    0.411544E-18
    0.881158E-01   -0.168880E-02    0.413637E-18
    0.880521E-01   -0.169072E-02    0.414106E-18
    0.879882E-01   -0.168591E-02    0.412929E-18
    0.879245E-01   -0.167433E-02    0.410092E-18
    0.878614E-01   -0.165595E-02    0.405591E-18
    0.885296E-01   -0.139707E-02    0.342184E-18
    0.884800E-01   -0.143218E-02    0.350784E-18
    0.884287E-01   -0.146223E-02    0.358143E-18
    0.883757E-01   -0.148702E-02    0.364214E-18
    0.883214E-01   -0.150638E-02    0.368956E-18
    0.882660E-01   -0.152017E-02    0.372334E-18
    0.882099E-01   -0.152826E-02    0.374315E-18
    0.881532E-01   -0.153054E-02    0.374875E-18
    0.880963E-01   -0.152696E-02    0.373998E-18
    0.880396E-01   -0.151748E-02    0.371675E-18
    0.879835E-01   -0.150208E-02    0.367904E-18
    0.885756E-01   -0.126306E-02    0.309362E-18
    0.885314E-01   -0.129452E-02    0.317065E-18
    0.884856E-01   -0.132150E-02    0.323674E-18
    0.884385E-01   -0.134385E-02    0.329148E-18
    0.883903E-01   -0.136144E-02    0.333455E-18
    0.883411E-01   -0.137413E-02    0.336565E-18
    0.882913E-01   -0.138183E-02    0.338452E-18
    0.882411E-01   -0.138447E-02    0.339097E-18
    0.881908E-01   -0.138198E-02    0.338487E-18
    0.881405E-01   -0.137434E-02    0.336617E-18
    0.880908E-01   -0.136157E-02    0.333488E-18
    0.886106E-01   -0.114042E-02    0.279323E-18
    0.885715E-01   -0.116876E-02    0.286265E-18
    0.885311E-01   -0.119316E-02    0.292239E-18
    0.884897E-01   -0.121348E-02    0.297216E-18
    0.884473E-01   -0.122960E-02    0.301165E-18
    0.884043E-01   -0.124143E-02    0.304061E-18
    0.883607E-01   -0.124887E-02    0.305886E-18
    0.883168E-01   -0.125188E-02    0.306622E-18
    0.882728E-01   -0.125040E-02    0.306259E-18
    0.882289E-01   -0.124442E-02    0.304794E-18
    0.881854E-01   -0.123395E-02    0.302230E-18
    0.886314E-01   -0.102957E-02    0.252171E-18
    0.885981E-01   -0.105540E-02    0.258499E-18
    0.885638E-01   -0.107773E-02    0.263968E-18
    0.885287E-01   -0.109644E-02    0.268551E-18
    0.884929E-01   -0.111144E-02    0.272224E-18
    0.884566E-01   -0.112263E-02    0.274966E-18
    0.884198E-01   -0.112995E-02    0.276759E-18
    0.883829E-01   -0.113335E-02    0.277591E-18
    0.883458E-01   -0.113279E-02    0.277453E-18
    0.883089E-01   -0.112825E-02    0.276343E-18
    0.882722E-01   -0.111976E-02    0.274261E-18
</DataArray>
</PointData>
<CellData>
<DataArray Name="DP" type="Float64" format="ascii" NumberOfComponents="1">
      0.000000E+0000
      0.000000E+0000
      0.000000E+0000
      0.000000E+0000
      0.000000E+0000
      0.000000E+0000
      0.000000E+0000
      0.000000E+0000
      0.000000E+0000
      0.000000E+0000
      0.000000E+0000
      0.000000E+0000
      0.000000E+0000
      0.000000E+0000
      0.000000E+0000
      0.000000E+0000
      0.000000E+0000
      0.000000E+0000
      0.000000E+0000
      0.000000E+0000
      0.000000E+0000
      0.000000E+0000
      0.000000E+0000
      0.000000E+0000
      0.000000E+0000
      0.000000E+0000
      0.000000E+0000
      0.000000E+0000
      0.000000E+0000
      0.000000E+0000
      0.000000E+0000
      0.000000E+0000
      0.000000E+0000
      0.000000E+0000
      0.000000E+0000
      0.000000E+0000
      0.000000E+0000
      0.000000E+0000
      0.000000E+0000
      0.000000E+0000
      0.000000E+0000
      0.000000E+0000
      0.000000E+0000
      0.000000E+0000
      0.000000E+0000
      0.000000E+0000
      0.000000E+0000
      0.000000E+0000
      0.000000E+0000
      0.000000E+0000
      0.000000E+0000
      0.000000E+0000
      0.000000E+0000
      0.000000E+0000
      0.000000E+0000
      0.000000E+0000
      0.000000E+0000
      0.000000E+0000
      0.000000E+0000
      0.000000E+0000
      0.000000E+0000
      0.000000E+0000
      0.000000E+0000
      0.000000E+0000
      0.000000E+0000
      0.000000E+0000
      0.000000E+0000
      0.000000E+0000
      0.000000E+0000
      0.000000E+0000
      0.000000E+0000
      0.000000E+0000
      0.000000E+0000
      0.000000E+0000
      0.000000E+0000
      0.000000E+0000
      0.000000E+0000
      0.000000E+0000
      0.000000E+0000
      0.000000E+0000
      0.000000E+0000
      0.000000E+0000
      0.000000E+0000
      0.000000E+0000
      0.000000E+0000
      0.000000E+0000
      0.000000E+0000
      0.000000E+0000
      0.000000E+0000
      0.000000E+0000
      0.000000E+0000
      0.000000E+0000
      0.000000E+0000
      0.000000E+0000
      0.000000E+0000
      0.000000E+0000
      0.000000E+0000
      0.000000E+0000
      0.000000E+0000
      0.000000E+0000
</DataArray>
<DataArray Name="P" type="Float64" format="ascii" NumberOfComponents="1">
      0.566804E+0000
      0.563243E+0000
      0.559646E+0000
      0.556014E+0000
      0.552345E+0000
      0.548641E+0000
      0.544899E+0000
      0.541121E+0000
      0.537305E+0000
      0.533451E+0000
      0.566828E+0000
      0.563265E+0000
      0.559668E+0000
      0.556035E+0000
      0.552366E+0000
      0.548660E+0000
      0.544918E+0000
      0.541138E+0000
      0.537321E+0000
      0.533466E+0000
      0.566850E+0000
      0.563287E+0000
      0.559689E+0000
      0.556055E+0000
      0.552385E+0000
      0.548678E+0000
      0.544935E+0000
      0.541154E+0000
      0.537336E+0000
      0.533480E+0000
      0.566872E+0000
      0.563308E+0000
      0.559709E+0000
      0.556074E+0000
      0.552403E+0000
      0.548696E+0000
      0.544951E+0000
      0.541170E+0000
      0.537351E+0000
      0.533494E+0000
      0.566892E+0000
      0.563328E+0000
      0.559728E+0000
      0.556092E+0000
      0.552420E+0000
      0.548712E+0000
      0.544967E+0000
      0.541185E+0000
      0.537365E+0000
      0.533506E+0000
      0.566912E+0000
      0.563346E+0000
      0.559746E+0000
      0.556109E+0000
      0.552437E+0000
      0.548728E+0000
      0.544982E+0000
      0.541199E+0000
      0.537378E+0000
      0.533519E+0000
      0.566930E+0000
      0.563364E+0000
      0.559763E+0000
      0.556126E+0000
      0.552452E+0000
      0.548743E+0000
      0.544996E+0000
      0.541212E+0000
      0.537390E+0000
      0.533531E+0000
      0.566947E+0000
      0.563380E+0000
      0.559779E+0000
      0.556141E+0000
      0.552467E+0000
      0.548757E+0000
      0.545009E+0000
      0.541225E+0000
      0.537403E+0000
      0.533542E+0000
      0.566963E+0000
      0.563396E+0000
      0.559794E+0000
      0.556156E+0000
      0.552481E+0000
      0.548770E+0000
      0.545022E+0000
      0.541237E+0000
      0.537414E+0000
      0.533553E+0000
      0.566978E+0000
      0.563411E+0000
      0.559808E+0000
      0.556169E+0000
      0.552495E+0000
      0.548783E+0000
      0.545035E+0000
      0.541249E+0000
      0.537426E+0000
      0.533564E+0000
</DataArray>
<DataArray Name="RHO" type="Float64" format="ascii" NumberOfComponents="1">
      0.117197E+0001
      0.117197E+0001
      0.117197E+0001
      0.117197E+0001
      0.117197E+0001
      0.117197E+0001
      0.117197E+0001
      0.117197E+0001
      0.117197E+0001
      0.117197E+0001
      0.117197E+0001
      0.117197E+0001
      0.117197E+0001
      0.117197E+0001
      0.117197E+0001
      0.117197E+0001
      0.117197E+0001
      0.117197E+0001
      0.117197E+0001
      0.117197E+0001
      0.117197E+0001
      0.117197E+0001
      0.117197E+0001
      0.117197E+0001
      0.117197E+0001
      0.117197E+0001
      0.117197E+0001
      0.117197E+0001
      0.117197E+0001
      0.117197E+0001
      0.117197E+0001
      0.117197E+0001
      0.117197E+0001
      0.117197E+0001
      0.117197E+0001
      0.117197E+0001
      0.117197E+0001
      0.117197E+0001
      0.117197E+0001
      0.117197E+0001
      0.117197E+0001
      0.117197E+0001
      0.117197E+0001
      0.117197E+0001
      0.117197E+0001
      0.117197E+0001
      0.117197E+0001
      0.117197E+0001
      0.117197E+0001
      0.117197E+0001
      0.117197E+0001
      0.117197E+0001
      0.117197E+0001
      0.117197E+0001
      0.117197E+0001
      0.117197E+0001
      0.117197E+0001
      0.117197E+0001
      0.117197E+0001
      0.117197E+0001
      0.117197E+0001
      0.117197E+0001