<?xml version="1.0"?>
<VTKFile type="StructuredGrid" version="0.1" byte_order="LittleEndian">
<StructuredGrid WholeExtent="          50          60          60          70           0           1">
<Piece Extent="          50          60          60          70           0           1">
<Points>
<DataArray NumberOfComponents="3" type="Float64" format="ascii">
    0.163301E-01    0.167655E-01    0.000000E+00
    0.167467E-01    0.167655E-01    0.000000E+00
    0.171675E-01    0.167655E-01    0.000000E+00
    0.175925E-01    0.167655E-01    0.000000E+00
    0.180217E-01    0.167655E-01    0.000000E+00
    0.184553E-01    0.167655E-01    0.000000E+00
    0.188932E-01    0.167655E-01    0.000000E+00
    0.193354E-01    0.167655E-01    0.000000E+00
    0.197821E-01    0.167655E-01    0.000000E+00
    0.202332E-01    0.167655E-01    0.000000E+00
    0.206889E-01    0.167655E-01    0.000000E+00
    0.163301E-01    0.172792E-01    0.000000E+00
    0.167467E-01    0.172792E-01    0.000000E+00
    0.171675E-01    0.172792E-01    0.000000E+00
    0.175925E-01    0.172792E-01    0.000000E+00
    0.180217E-01    0.172792E-01    0.000000E+00
    0.184553E-01    0.172792E-01    0.000000E+00
    0.188932E-01    0.172792E-01    0.000000E+00
    0.193354E-01    0.172792E-01    0.000000E+00
    0.197821E-01    0.172792E-01    0.000000E+00
    0.202332E-01    0.172792E-01    0.000000E+00
    0.206889E-01    0.172792E-01    0.000000E+00
    0.163301E-01    0.178083E-01    0.000000E+00
    0.167467E-01    0.178083E-01    0.000000E+00
    0.171675E-01    0.178083E-01    0.000000E+00
    0.175925E-01    0.178083E-01    0.000000E+00
    0.180217E-01    0.178083E-01    0.000000E+00
    0.184553E-01    0.178083E-01    0.000000E+00
    0.188932E-01    0.178083E-01    0.000000E+00
    0.193354E-01    0.178083E-01    0.000000E+00
    0.197821E-01    0.178083E-01    0.000000E+00
    0.202332E-01    0.178083E-01    0.000000E+00
    0.206889E-01    0.178083E-01    0.000000E+00
    0.163301E-01    0.183533E-01    0.000000E+00
    0.167467E-01    0.183533E-01    0.000000E+00
    0.171675E-01    0.183533E-01    0.000000E+00
    0.175925E-01    0.183533E-01    0.000000E+00
    0.180217E-01    0.183533E-01    0.000000E+00
    0.184553E-01    0.183533E-01    0.000000E+00
    0.188932E-01    0.183533E-01    0.000000E+00
    0.193354E-01    0.183533E-01    0.000000E+00
    0.197821E-01    0.183533E-01    0.000000E+00
    0.202332E-01    0.183533E-01    0.000000E+00
    0.206889E-01    0.183533E-01    0.000000E+00
    0.163301E-01    0.189147E-01    0.000000E+00
    0.167467E-01    0.189147E-01    0.000000E+00
    0.171675E-01    0.189147E-01    0.000000E+00
    0.175925E-01    0.189147E-01    0.000000E+00
    0.180217E-01    0.189147E-01    0.000000E+00
    0.184553E-01    0.189147E-01    0.000000E+00
    0.188932E-01    0.189147E-01    0.000000E+00
    0.193354E-01    0.189147E-01    0.000000E+00
    0.197821E-01    0.189147E-01    0.000000E+00
    0.202332E-01    0.189147E-01    0.000000E+00
    0.206889E-01    0.189147E-01    0.000000E+00
    0.163301E-01    0.194929E-01    0.000000E+00
    0.167467E-01    0.194929E-01    0.000000E+00
    0.171675E-01    0.194929E-01    0.000000E+00
    0.175925E-01    0.194929E-01    0.000000E+00
    0.180217E-01    0.194929E-01    0.000000E+00
    0.184553E-01    0.194929E-01    0.000000E+00
    0.188932E-01    0.194929E-01    0.000000E+00
    0.193354E-01    0.194929E-01    0.000000E+00
    0.197821E-01    0.194929E-01    0.000000E+00
    0.202332E-01    0.194929E-01    0.000000E+00
    0.206889E-01    0.194929E-01    0.000000E+00
    0.163301E-01    0.200884E-01    0.000000E+00
    0.167467E-01    0.200884E-01    0.000000E+00
    0.171675E-01    0.200884E-01    0.000000E+00
    0.175925E-01    0.200884E-01    0.000000E+00
    0.180217E-01    0.200884E-01    0.000000E+00
    0.184553E-01    0.200884E-01    0.000000E+00
    0.188932E-01    0.200884E-01    0.000000E+00
    0.193354E-01    0.200884E-01    0.000000E+00
    0.197821E-01    0.200884E-01    0.000000E+00
    0.202332E-01    0.200884E-01    0.000000E+00
    0.206889E-01    0.200884E-01    0.000000E+00
    0.163301E-01    0.207018E-01    0.000000E+00
    0.167467E-01    0.207018E-01    0.000000E+00
    0.171675E-01    0.207018E-01    0.000000E+00
    0.175925E-01    0.207018E-01    0.000000E+00
    0.180217E-01    0.207018E-01    0.000000E+00
    0.184553E-01    0.207018E-01    0.000000E+00
    0.188932E-01    0.207018E-01    0.000000E+00
    0.193354E-01    0.207018E-01    0.000000E+00
    0.197821E-01    0.207018E-01    0.000000E+00
    0.202332E-01    0.207018E-01    0.000000E+00
    0.206889E-01    0.207018E-01    0.000000E+00
    0.163301E-01    0.213336E-01    0.000000E+00
    0.167467E-01    0.213336E-01    0.000000E+00
    0.171675E-01    0.213336E-01    0.000000E+00
    0.175925E-01    0.213336E-01    0.000000E+00
    0.180217E-01    0.213336E-01    0.000000E+00
    0.184553E-01    0.213336E-01    0.000000E+00
    0.188932E-01    0.213336E-01    0.000000E+00
    0.193354E-01    0.213336E-01    0.000000E+00
    0.197821E-01    0.213336E-01    0.000000E+00
    0.202332E-01    0.213336E-01    0.000000E+00
    0.206889E-01    0.213336E-01    0.000000E+00
    0.163301E-01    0.219843E-01    0.000000E+00
    0.167467E-01    0.219843E-01    0.000000E+00
    0.171675E-01    0.219843E-01    0.000000E+00
    0.175925E-01    0.219843E-01    0.000000E+00
    0.180217E-01    0.219843E-01    0.000000E+00
    0.184553E-01    0.219843E-01    0.000000E+00
    0.188932E-01    0.219843E-01    0.000000E+00
    0.193354E-01    0.219843E-01    0.000000E+00
    0.197821E-01    0.219843E-01    0.000000E+00
    0.202332E-01    0.219843E-01    0.000000E+00
    0.206889E-01    0.219843E-01    0.000000E+00
    0.163301E-01    0.226546E-01    0.000000E+00
    0.167467E-01    0.226546E-01    0.000000E+00
    0.171675E-01    0.226546E-01    0.000000E+00
    0.175925E-01    0.226546E-01    0.000000E+00
    0.180217E-01    0.226546E-01    0.000000E+00
    0.184553E-01    0.226546E-01    0.000000E+00
    0.188932E-01    0.226546E-01    0.000000E+00
    0.193354E-01    0.226546E-01    0.000000E+00
    0.197821E-01    0.226546E-01    0.000000E+00
    0.202332E-01    0.226546E-01    0.000000E+00
    0.206889E-01    0.226546E-01    0.000000E+00
    0.163301E-01    0.167655E-01    0.160000E-02
    0.167467E-01    0.167655E-01    0.160000E-02
    0.171675E-01    0.167655E-01    0.160000E-02
    0.175925E-01    0.167655E-01    0.160000E-02
    0.180217E-01    0.167655E-01    0.160000E-02
    0.184553E-01    0.167655E-01    0.160000E-02
    0.188932E-01    0.167655E-01    0.160000E-02
    0.193354E-01    0.167655E-01    0.160000E-02
    0.197821E-01    0.167655E-01    0.160000E-02
    0.202332E-01    0.167655E-01    0.160000E-02
    0.206889E-01    0.167655E-01    0.160000E-02
    0.163301E-01    0.172792E-01    0.160000E-02
    0.167467E-01    0.172792E-01    0.160000E-02
    0.171675E-01    0.172792E-01    0.160000E-02
    0.175925E-01    0.172792E-01    0.160000E-02
    0.180217E-01    0.172792E-01    0.160000E-02
    0.184553E-01    0.172792E-01    0.160000E-02
    0.188932E-01    0.172792E-01    0.160000E-02
    0.193354E-01    0.172792E-01    0.160000E-02
    0.197821E-01    0.172792E-01    0.160000E-02
    0.202332E-01    0.172792E-01    0.160000E-02
    0.206889E-01    0.172792E-01    0.160000E-02
    0.163301E-01    0.178083E-01    0.160000E-02
    0.167467E-01    0.178083E-01    0.160000E-02
    0.171675E-01    0.178083E-01    0.160000E-02
    0.175925E-01    0.178083E-01    0.160000E-02
    0.180217E-01    0.178083E-01    0.160000E-02
    0.184553E-01    0.178083E-01    0.160000E-02
    0.188932E-01    0.178083E-01    0.160000E-02
    0.193354E-01    0.178083E-01    0.160000E-02
    0.197821E-01    0.178083E-01    0.160000E-02
    0.202332E-01    0.178083E-01    0.160000E-02
    0.206889E-01    0.178083E-01    0.160000E-02
    0.163301E-01    0.183533E-01    0.160000E-02
    0.167467E-01    0.183533E-01    0.160000E-02
    0.171675E-01    0.183533E-01    0.160000E-02
    0.175925E-01    0.183533E-01    0.160000E-02
    0.180217E-01    0.183533E-01    0.160000E-02
    0.184553E-01    0.183533E-01    0.160000E-02
    0.188932E-01    0.183533E-01    0.160000E-02
    0.193354E-01    0.183533E-01    0.160000E-02
    0.197821E-01    0.183533E-01    0.160000E-02
    0.202332E-01    0.183533E-01    0.160000E-02
    0.206889E-01    0.183533E-01    0.160000E-02
    0.163301E-01    0.189147E-01    0.160000E-02
    0.167467E-01    0.189147E-01    0.160000E-02
    0.171675E-01    0.189147E-01    0.160000E-02
    0.175925E-01    0.189147E-01    0.160000E-02
    0.180217E-01    0.189147E-01    0.160000E-02
    0.184553E-01    0.189147E-01    0.160000E-02
    0.188932E-01    0.189147E-01    0.160000E-02
    0.193354E-01    0.189147E-01    0.160000E-02
    0.197821E-01    0.189147E-01    0.160000E-02
    0.202332E-01    0.189147E-01    0.160000E-02
    0.206889E-01    0.189147E-01    0.160000E-02
    0.163301E-01    0.194929E-01    0.160000E-02
    0.167467E-01    0.194929E-01    0.160000E-02
    0.171675E-01    0.194929E-01    0.160000E-02
    0.175925E-01    0.194929E-01    0.160000E-02
    0.180217E-01    0.194929E-01    0.160000E-02
    0.184553E-01    0.194929E-01    0.160000E-02
    0.188932E-01    0.194929E-01    0.160000E-02
    0.193354E-01    0.194929E-01    0.160000E-02
    0.197821E-01    0.194929E-01    0.160000E-02
    0.202332E-01    0.194929E-01    0.160000E-02
    0.206889E-01    0.194929E-01    0.160000E-02
    0.163301E-01    0.200884E-01    0.160000E-02
    0.167467E-01    0.200884E-01    0.160000E-02
    0.171675E-01    0.200884E-01    0.160000E-02
    0.175925E-01    0.200884E-01    0.160000E-02
    0.180217E-01    0.200884E-01    0.160000E-02
    0.184553E-01    0.200884E-01    0.160000E-02
    0.188932E-01    0.200884E-01    0.160000E-02
    0.193354E-01    0.200884E-01    0.160000E-02
    0.197821E-01    0.200884E-01    0.160000E-02
    0.202332E-01    0.200884E-01    0.160000E-02
    0.206889E-01    0.200884E-01    0.160000E-02
    0.163301E-01    0.207018E-01    0.160000E-02
    0.167467E-01    0.207018E-01    0.160000E-02
    0.171675E-01    0.207018E-01    0.160000E-02
    0.175925E-01    0.207018E-01    0.160000E-02
    0.180217E-01    0.207018E-01    0.160000E-02
    0.184553E-01    0.207018E-01    0.160000E-02
    0.188932E-01    0.207018E-01    0.160000E-02
    0.193354E-01    0.207018E-01    0.160000E-02
    0.197821E-01    0.207018E-01    0.160000E-02
    0.202332E-01    0.207018E-01    0.160000E-02
    0.206889E-01    0.207018E-01    0.160000E-02
    0.163301E-01    0.213336E-01    0.160000E-02
    0.167467E-01    0.213336E-01    0.160000E-02
    0.171675E-01    0.213336E-01    0.160000E-02
    0.175925E-01    0.213336E-01    0.160000E-02
    0.180217E-01    0.213336E-01    0.160000E-02
    0.184553E-01    0.213336E-01    0.160000E-02
    0.188932E-01    0.213336E-01    0.160000E-02
    0.193354E-01    0.213336E-01    0.160000E-02
    0.197821E-01    0.213336E-01    0.160000E-02
    0.202332E-01    0.213336E-01    0.160000E-02
    0.206889E-01    0.213336E-01    0.160000E-02
    0.163301E-01    0.219843E-01    0.160000E-02
    0.167467E-01    0.219843E-01    0.160000E-02
    0.171675E-01    0.219843E-01    0.160000E-02
    0.175925E-01    0.219843E-01    0.160000E-02
    0.180217E-01    0.219843E-01    0.160000E-02
    0.184553E-01    0.219843E-01    0.160000E-02
    0.188932E-01    0.219843E-01    0.160000E-02
    0.193354E-01    0.219843E-01    0.160000E-02
    0.197821E-01    0.219843E-01    0.160000E-02
    0.202332E-01    0.219843E-01    0.160000E-02
    0.206889E-01    0.219843E-01    0.160000E-02
    0.163301E-01    0.226546E-01    0.160000E-02
    0.167467E-01    0.226546E-01    0.160000E-02
    0.171675E-01    0.226546E-01    0.160000E-02
    0.175925E-01    0.226546E-01    0.160000E-02
    0.180217E-01    0.226546E-01    0.160000E-02
    0.184553E-01    0.226546E-01    0.160000E-02
    0.188932E-01    0.226546E-01    0.160000E-02
    0.193354E-01    0.226546E-01    0.160000E-02
    0.197821E-01    0.226546E-01    0.160000E-02
    0.202332E-01    0.226546E-01    0.160000E-02
    0.206889E-01    0.226546E-01    0.160000E-02
</DataArray>
</Points>
<PointData>
<DataArray Name="Velocity" type="Float64" format="ascii" NumberOfComponents="3">
    0.872793E-01   -0.221353E-02    0.000000E+00
    0.872966E-01   -0.219347E-02    0.000000E+00
    0.873140E-01   -0.215419E-02    0.000000E+00
    0.873314E-01   -0.210058E-02    0.000000E+00
    0.873488E-01   -0.203610E-02    0.000000E+00
    0.873664E-01   -0.196398E-02    0.000000E+00
    0.873841E-01   -0.188706E-02    0.000000E+00
    0.874021E-01   -0.180767E-02    0.000000E+00
    0.874207E-01   -0.172760E-02    0.000000E+00
    0.874397E-01   -0.164822E-02    0.000000E+00
    0.874594E-01   -0.157047E-02    0.000000E+00
    0.873862E-01   -0.217133E-02    0.000000E+00
    0.873982E-01   -0.215131E-02    0.000000E+00
    0.874105E-01   -0.211226E-02    0.000000E+00
    0.874231E-01   -0.205923E-02    0.000000E+00
    0.874359E-01   -0.199576E-02    0.000000E+00
    0.874489E-01   -0.192512E-02    0.000000E+00
    0.874625E-01   -0.185010E-02    0.000000E+00
    0.874765E-01   -0.177295E-02    0.000000E+00
    0.874912E-01   -0.169540E-02    0.000000E+00
    0.875067E-01   -0.161867E-02    0.000000E+00
    0.875229E-01   -0.154363E-02    0.000000E+00
    0.875030E-01   -0.211186E-02    0.000000E+00
    0.875020E-01   -0.209370E-02    0.000000E+00
    0.875026E-01   -0.205718E-02    0.000000E+00
    0.875049E-01   -0.200705E-02    0.000000E+00
    0.875088E-01   -0.194677E-02    0.000000E+00
    0.875144E-01   -0.187950E-02    0.000000E+00
    0.875217E-01   -0.180796E-02    0.000000E+00
    0.875305E-01   -0.173432E-02    0.000000E+00
    0.875408E-01   -0.166023E-02    0.000000E+00
    0.875525E-01   -0.158688E-02    0.000000E+00
    0.875655E-01   -0.151507E-02    0.000000E+00
    0.876177E-01   -0.203959E-02    0.000000E+00
    0.876071E-01   -0.202426E-02    0.000000E+00
    0.875988E-01   -0.199160E-02    0.000000E+00
    0.875929E-01   -0.194579E-02    0.000000E+00
    0.875895E-01   -0.189008E-02    0.000000E+00
    0.875886E-01   -0.182748E-02    0.000000E+00
    0.875901E-01   -0.176054E-02    0.000000E+00
    0.875939E-01   -0.169136E-02    0.000000E+00
    0.875998E-01   -0.162151E-02    0.000000E+00
    0.876076E-01   -0.155215E-02    0.000000E+00
    0.876170E-01   -0.148406E-02    0.000000E+00
    0.877270E-01   -0.195859E-02    0.000000E+00
    0.877099E-01   -0.194653E-02    0.000000E+00
    0.876953E-01   -0.191837E-02    0.000000E+00
    0.876834E-01   -0.187761E-02    0.000000E+00
    0.876745E-01   -0.182723E-02    0.000000E+00
    0.876684E-01   -0.177002E-02    0.000000E+00
    0.876651E-01   -0.170838E-02    0.000000E+00
    0.876645E-01   -0.164427E-02    0.000000E+00
    0.876663E-01   -0.157920E-02    0.000000E+00
    0.876703E-01   -0.151427E-02    0.000000E+00
    0.876763E-01   -0.145026E-02    0.000000E+00
    0.878288E-01   -0.187248E-02    0.000000E+00
    0.878078E-01   -0.186375E-02    0.000000E+00
    0.877892E-01   -0.184026E-02    0.000000E+00
    0.877734E-01   -0.180476E-02    0.000000E+00
    0.877606E-01   -0.175999E-02    0.000000E+00
    0.877507E-01   -0.170848E-02    0.000000E+00
    0.877438E-01   -0.165244E-02    0.000000E+00
    0.877396E-01   -0.159369E-02    0.000000E+00
    0.877380E-01   -0.153367E-02    0.000000E+00
    0.877387E-01   -0.147342E-02    0.000000E+00
    0.877415E-01   -0.141373E-02    0.000000E+00
    0.879217E-01   -0.178433E-02    0.000000E+00
    0.878990E-01   -0.177879E-02    0.000000E+00
    0.878785E-01   -0.175981E-02    0.000000E+00
    0.878606E-01   -0.172949E-02    0.000000E+00
    0.878455E-01   -0.169024E-02    0.000000E+00
    0.878332E-01   -0.164438E-02    0.000000E+00
    0.878238E-01   -0.159392E-02    0.000000E+00
    0.878170E-01   -0.154054E-02    0.000000E+00
    0.878128E-01   -0.148560E-02    0.000000E+00
    0.878108E-01   -0.143008E-02    0.000000E+00
    0.878110E-01   -0.137475E-02    0.000000E+00
    0.880051E-01   -0.169687E-02    0.000000E+00
    0.879825E-01   -0.169425E-02    0.000000E+00
    0.879619E-01   -0.167944E-02    0.000000E+00
    0.879436E-01   -0.165392E-02    0.000000E+00
    0.879278E-01   -0.161986E-02    0.000000E+00
    0.879145E-01   -0.157932E-02    0.000000E+00
    0.879037E-01   -0.153415E-02    0.000000E+00
    0.878954E-01   -0.148591E-02    0.000000E+00
    0.878893E-01   -0.143584E-02    0.000000E+00
    0.878854E-01   -0.138490E-02    0.000000E+00
    0.878834E-01   -0.133382E-02    0.000000E+00
    0.880789E-01   -0.161278E-02    0.000000E+00
    0.880584E-01   -0.161268E-02    0.000000E+00
    0.880395E-01   -0.160152E-02    0.000000E+00
    0.880224E-01   -0.158022E-02    0.000000E+00
    0.880073E-01   -0.155074E-02    0.000000E+00
    0.879943E-01   -0.151494E-02    0.000000E+00
    0.879833E-01   -0.147453E-02    0.000000E+00
    0.879743E-01   -0.143093E-02    0.000000E+00
    0.879673E-01   -0.138532E-02    0.000000E+00
    0.879620E-01   -0.133861E-02    0.000000E+00
    0.879584E-01   -0.129149E-02    0.000000E+00
    0.881440E-01   -0.153507E-02    0.000000E+00
    0.881276E-01   -0.153695E-02    0.000000E+00
    0.881123E-01   -0.152863E-02    0.000000E+00
    0.880982E-01   -0.151067E-02    0.000000E+00
    0.880853E-01   -0.148485E-02    0.000000E+00
    0.880737E-01   -0.145290E-02    0.000000E+00
    0.880636E-01   -0.141640E-02    0.000000E+00
    0.880548E-01   -0.137670E-02    0.000000E+00
    0.880474E-01   -0.133490E-02    0.000000E+00
    0.880413E-01   -0.129188E-02    0.000000E+00
    0.880366E-01   -0.124830E-02    0.000000E+00
    0.882030E-01   -0.146744E-02    0.000000E+00
    0.881931E-01   -0.147041E-02    0.000000E+00
    0.881834E-01   -0.146371E-02    0.000000E+00
    0.881739E-01   -0.144771E-02    0.000000E+00
    0.881645E-01   -0.142417E-02    0.000000E+00
    0.881555E-01   -0.139474E-02    0.000000E+00
    0.881468E-01   -0.136096E-02    0.000000E+00
    0.881388E-01   -0.132411E-02    0.000000E+00
    0.881314E-01   -0.128524E-02    0.000000E+00
    0.881248E-01   -0.124518E-02    0.000000E+00
    0.881190E-01   -0.120454E-02    0.000000E+00
    0.872630E-01   -0.221503E-02    0.542526E-18
    0.872795E-01   -0.219347E-02    0.537246E-18
    0.872965E-01   -0.215419E-02    0.527624E-18
    0.873136E-01   -0.210058E-02    0.514493E-18
    0.873311E-01   -0.203610E-02    0.498700E-18
    0.873488E-01   -0.196398E-02    0.481037E-18
    0.873668E-01   -0.188706E-02    0.462198E-18
    0.873854E-01   -0.180767E-02    0.442750E-18
    0.874045E-01   -0.172760E-02    0.423141E-18
    0.874242E-01   -0.164822E-02    0.403699E-18
    0.874446E-01   -0.157047E-02    0.384655E-18
    0.873862E-01   -0.217283E-02    0.532190E-18
    0.873982E-01   -0.215131E-02    0.526919E-18
    0.874105E-01   -0.211226E-02    0.517354E-18
    0.874231E-01   -0.205923E-02    0.504365E-18
    0.874359E-01   -0.199576E-02    0.488821E-18
    0.874489E-01   -0.192512E-02    0.471519E-18
    0.874625E-01   -0.185010E-02    0.453144E-18
    0.874765E-01   -0.177295E-02    0.434248E-18
    0.874912E-01   -0.169540E-02    0.415252E-18
    0.875067E-01   -0.161867E-02    0.396460E-18
    0.875229E-01   -0.154363E-02    0.378081E-18
    0.875030E-01   -0.211313E-02    0.517568E-18
    0.875020E-01   -0.209370E-02    0.512808E-18
    0.875026E-01   -0.205718E-02    0.503863E-18
    0.875049E-01   -0.200705E-02    0.491585E-18
    0.875088E-01   -0.194677E-02    0.476821E-18
    0.875144E-01   -0.187950E-02    0.460346E-18
    0.875217E-01   -0.180796E-02    0.442823E-18
    0.875305E-01   -0.173432E-02    0.424786E-18
    0.875408E-01   -0.166023E-02    0.406639E-18
    0.875525E-01   -0.158688E-02    0.388673E-18
    0.875655E-01   -0.151507E-02    0.371085E-18
    0.876177E-01   -0.204050E-02    0.499779E-18
    0.876071E-01   -0.202426E-02    0.495801E-18
    0.875988E-01   -0.199160E-02    0.487802E-18
    0.875929E-01   -0.194579E-02    0.476582E-18
    0.875895E-01   -0.189008E-02    0.462937E-18
    0.875886E-01   -0.182748E-02    0.447603E-18
    0.875901E-01   -0.176054E-02    0.431209E-18
    0.875939E-01   -0.169136E-02    0.414264E-18
    0.875998E-01   -0.162151E-02    0.397157E-18
    0.876076E-01   -0.155215E-02    0.380167E-18
    0.876170E-01   -0.148406E-02    0.363489E-18
    0.877270E-01   -0.195911E-02    0.479843E-18
    0.877099E-01   -0.194653E-02    0.476763E-18
    0.876953E-01   -0.191837E-02    0.469866E-18
    0.876834E-01   -0.187761E-02    0.459881E-18
    0.876745E-01   -0.182723E-02    0.447542E-18
    0.876684E-01   -0.177002E-02    0.433529E-18
    0.876651E-01   -0.170838E-02    0.418432E-18
    0.876645E-01   -0.164427E-02    0.402730E-18
    0.876663E-01   -0.157920E-02    0.386792E-18
    0.876703E-01   -0.151427E-02    0.370890E-18
    0.876763E-01   -0.145026E-02    0.355212E-18
    0.878288E-01   -0.187259E-02    0.458653E-18
    0.878078E-01   -0.186375E-02    0.456488E-18
    0.877892E-01   -0.184026E-02    0.450733E-18
    0.877734E-01   -0.180476E-02    0.442040E-18
    0.877606E-01   -0.175999E-02    0.431074E-18
    0.877507E-01   -0.170848E-02    0.418456E-18
    0.877438E-01   -0.165244E-02    0.404730E-18
    0.877396E-01   -0.159369E-02    0.390341E-18
    0.877380E-01   -0.153367E-02    0.375640E-18
    0.877387E-01   -0.147342E-02    0.360885E-18
    0.877415E-01   -0.141373E-02    0.346263E-18
    0.879217E-01   -0.178406E-02    0.436969E-18
    0.878990E-01   -0.177879E-02    0.435678E-18
    0.878785E-01   -0.175981E-02    0.431029E-18
    0.878606E-01   -0.172949E-02    0.423602E-18
    0.878455E-01   -0.169024E-02    0.413990E-18
    0.878332E-01   -0.164438E-02    0.402757E-18
    0.878238E-01   -0.159392E-02    0.390397E-18
    0.878170E-01   -0.154054E-02    0.377325E-18
    0.878128E-01   -0.148560E-02    0.363866E-18
    0.878108E-01   -0.143008E-02    0.350269E-18
    0.878110E-01   -0.137475E-02    0.336716E-18
    0.880051E-01   -0.169626E-02    0.415464E-18
    0.879825E-01   -0.169425E-02    0.414971E-18
    0.879619E-01   -0.167944E-02    0.411344E-18
    0.879436E-01   -0.165392E-02    0.405093E-18
    0.879278E-01   -0.161986E-02    0.396751E-18
    0.879145E-01   -0.157932E-02    0.386822E-18
    0.879037E-01   -0.153415E-02    0.375760E-18
    0.878954E-01   -0.148591E-02    0.363943E-18
    0.878893E-01   -0.143584E-02    0.351679E-18
    0.878854E-01   -0.138490E-02    0.339203E-18
    0.878834E-01   -0.133382E-02    0.326691E-18
    0.880789E-01   -0.161187E-02    0.394795E-18
    0.880584E-01   -0.161268E-02    0.394994E-18
    0.880395E-01   -0.160152E-02    0.392259E-18
    0.880224E-01   -0.158022E-02    0.387042E-18
    0.880073E-01   -0.155074E-02    0.379821E-18
    0.879943E-01   -0.151494E-02    0.371054E-18
    0.879833E-01   -0.147453E-02    0.361155E-18
    0.879743E-01   -0.143093E-02    0.350476E-18
    0.879673E-01   -0.138532E-02    0.339304E-18
    0.879620E-01   -0.133861E-02    0.327864E-18
    0.879584E-01   -0.129149E-02    0.316325E-18
    0.881440E-01   -0.153393E-02    0.375704E-18
    0.881276E-01   -0.153695E-02    0.376444E-18
    0.881123E-01   -0.152863E-02    0.374408E-18
    0.880982E-01   -0.151067E-02    0.370008E-18
    0.880853E-01   -0.148485E-02    0.363682E-18
    0.880737E-01   -0.145290E-02    0.355857E-18
    0.880636E-01   -0.141640E-02    0.346917E-18
    0.880548E-01   -0.137670E-02    0.337193E-18
    0.880474E-01   -0.133490E-02    0.326956E-18
    0.880413E-01   -0.129188E-02    0.316420E-18
    0.880366E-01   -0.124830E-02    0.305745E-18
    0.882030E-01   -0.146618E-02    0.359110E-18
    0.881931E-01   -0.147041E-02    0.360146E-18
    0.881834E-01   -0.146371E-02    0.358505E-18
    0.881739E-01   -0.144771E-02    0.354588E-18
    0.881645E-01   -0.142417E-02    0.348821E-18
    0.881555E-01   -0.139474E-02    0.341614E-18
    0.881468E-01   -0.136096E-02    0.333339E-18
    0.881388E-01   -0.132411E-02    0.324313E-18
    0.881314E-01   -0.128524E-02    0.314794E-18
    0.881248E-01   -0.124518E-02    0.304981E-18
    0.881190E-01   -0.120454E-02    0.295028E-18
</DataArray>
</PointData>
<CellData>
<DataArray Name="DP" type="Float64" format="ascii" NumberOfComponents="1">
      0.000000E+0000
      0.000000E+0000
      0.000000E+0000
      0.000000E+0000
      0.000000E+0000
      0.000000E+0000
      0.000000E+0000
      0.000000E+0000
      0.000000E+0000
      0.000000E+0000
      0.000000E+0000
      0.000000E+0000
      0.000000E+0000
      0.000000E+0000
      0.000000E+0000
      0.000000E+0000
      0.000000E+0000
      0.000000E+0000
      0.000000E+0000
      0.000000E+0000
      0.000000E+0000
      0.000000E+0000
      0.000000E+0000
      0.000000E+0000
      0.000000E+0000
      0.000000E+0000
      0.000000E+0000
      0.000000E+0000
      0.000000E+0000
      0.000000E+0000
      0.000000E+0000
      0.000000E+0000
      0.000000E+0000
      0.000000E+0000
      0.000000E+0000
      0.000000E+0000
      0.000000E+0000
      0.000000E+0000
      0.000000E+0000
      0.000000E+0000
      0.000000E+0000
      0.000000E+0000
      0.000000E+0000
      0.000000E+0000
      0.000000E+0000
      0.000000E+0000
      0.000000E+0000
      0.000000E+0000
      0.000000E+0000
      0.000000E+0000
      0.000000E+0000
      0.000000E+0000
      0.000000E+0000
      0.000000E+0000
      0.000000E+0000
      0.000000E+0000
      0.000000E+0000
      0.000000E+0000
      0.000000E+0000
      0.000000E+0000
      0.000000E+0000
      0.000000E+0000
      0.000000E+0000
      0.000000E+0000
      0.000000E+0000
      0.000000E+0000
      0.000000E+0000
      0.000000E+0000
      0.000000E+0000
      0.000000E+0000
      0.000000E+0000
      0.000000E+0000
      0.000000E+0000
      0.000000E+0000
      0.000000E+0000
      0.000000E+0000
      0.000000E+0000
      0.000000E+0000
      0.000000E+0000
      0.000000E+0000
      0.000000E+0000
      0.000000E+0000
      0.000000E+0000
      0.000000E+0000
      0.000000E+0000
      0.000000E+0000
      0.000000E+0000
      0.000000E+0000
      0.000000E+0000
      0.000000E+0000
      0.000000E+0000
      0.000000E+0000
      0.000000E+0000
      0.000000E+0000
      0.000000E+0000
      0.000000E+0000
      0.000000E+0000
      0.000000E+0000
      0.000000E+0000
      0.000000E+0000
</DataArray>
<DataArray Name="P" type="Float64" format="ascii" NumberOfComponents="1">
      0.443007E+0000
      0.438197E+0000
      0.433339E+0000
      0.428431E+0000
      0.423475E+0000
      0.418468E+0000
      0.413411E+0000
      0.408303E+0000
      0.403143E+0000
      0.397932E+0000
      0.442999E+0000
      0.438189E+0000
      0.433331E+0000
      0.428424E+0000
      0.423467E+0000
      0.418460E+0000
      0.413403E+0000
      0.408295E+0000
      0.403136E+0000
      0.397925E+0000
      0.442992E+0000
      0.438182E+0000
      0.433324E+0000
      0.428417E+0000
      0.423460E+0000
      0.418453E+0000
      0.413397E+0000
      0.408289E+0000
      0.403129E+0000
      0.397918E+0000
      0.442986E+0000
      0.438176E+0000
      0.433318E+0000
      0.428410E+0000
      0.423454E+0000
      0.418447E+0000
      0.413390E+0000
      0.408282E+0000
      0.403123E+0000
      0.397912E+0000
      0.442980E+0000
      0.438170E+0000
      0.433312E+0000
      0.428404E+0000
      0.423448E+0000
      0.418441E+0000
      0.413384E+0000
      0.408276E+0000
      0.403117E+0000
      0.397907E+0000
      0.442975E+0000
      0.438165E+0000
      0.433306E+0000
      0.428399E+0000
      0.423442E+0000
      0.418435E+0000
      0.413379E+0000
      0.408271E+0000
      0.403112E+0000
      0.397901E+0000
      0.442970E+0000
      0.438160E+0000
      0.433301E+0000
      0.428394E+0000
      0.423437E+0000
      0.418430E+0000
      0.413373E+0000
      0.408266E+0000
      0.403107E+0000
      0.397896E+0000
      0.442966E+0000
      0.438155E+0000
      0.433297E+0000
      0.428389E+0000
      0.423432E+0000
      0.418426E+0000
      0.413369E+0000
      0.408261E+0000
      0.403102E+0000
      0.397891E+0000
      0.442962E+0000
      0.438151E+0000
      0.433292E+0000
      0.428385E+0000
      0.423428E+0000
      0.418421E+0000
      0.413364E+0000
      0.408257E+0000
      0.403098E+0000
      0.397887E+0000
      0.442958E+0000
      0.438148E+0000
      0.433289E+0000
      0.428381E+0000
      0.423424E+0000
      0.418417E+0000
      0.413360E+0000
      0.408253E+0000
      0.403094E+0000
      0.397883E+0000
</DataArray>
<DataArray Name="RHO" type="Float64" format="ascii" NumberOfComponents="1">
      0.117197E+0001
      0.117197E+0001
      0.117197E+0001
      0.117197E+0001
      0.117197E+0001
      0.117197E+0001
      0.117197E+0001
      0.117197E+0001
      0.117197E+0001
      0.117197E+0001
      0.117197E+0001
      0.117197E+0001
      0.117197E+0001
      0.117197E+0001
      0.117197E+0001
      0.117197E+0001
      0.117197E+0001
      0.117197E+0001
      0.117197E+0001
      0.117197E+0001
      0.117197E+0001
      0.117197E+0001
      0.117197E+0001
      0.117197E+0001
      0.117197E+0001
      0.117197E+0001
      0.117197E+0001
      0.117197E+0001
      0.117197E+0001
      0.117197E+0001
      0.117197E+0001
      0.117197E+0001
      0.117197E+0001
      0.117197E+0001
      0.117197E+0001
      0.117197E+0001
      0.117197E+0001
      0.117197E+0001
      0.117197E+0001
      0.117197E+0001
      0.117197E+0001
      0.117197E+0001
      0.117197E+0001
      0.117197E+0001
      0.117197E+0001
      0.117197E+0001
      0.117197E+0001
      0.117197E+0001
      0.117197E+0001
      0.117197E+0001
      0.117197E+0001
      0.117197E+0001
      0.117197E+0001
      0.117197E+0001
      0.117197E+0001
      0.117197E+0001
      0.117197E+0001
      0.117197E+0001
      0.117197E+0001
      0.117197E+0001
      0.117197E+0001
      0.117197E+0001