<?xml version="1.0"?>
<VTKFile type="StructuredGrid" version="0.1" byte_order="LittleEndian">
<StructuredGrid WholeExtent="         190         200           0          10           0           1">
<Piece Extent="         190         200           0          10           0           1">
<Points>
<DataArray NumberOfComponents="3" type="Float64" format="ascii">
    0.142447E+00    0.000000E+00    0.000000E+00
    0.144124E+00    0.000000E+00    0.000000E+00
    0.145819E+00    0.000000E+00    0.000000E+00
    0.147530E+00    0.000000E+00    0.000000E+00
    0.149259E+00    0.000000E+00    0.000000E+00
    0.151005E+00    0.000000E+00    0.000000E+00
    0.152768E+00    0.000000E+00    0.000000E+00
    0.154549E+00    0.000000E+00    0.000000E+00
    0.156348E+00    0.000000E+00    0.000000E+00
    0.158165E+00    0.000000E+00    0.000000E+00
    0.160000E+00    0.000000E+00    0.000000E+00
    0.142447E+00    0.288897E-03    0.000000E+00
    0.144124E+00    0.288897E-03    0.000000E+00
    0.145819E+00    0.288897E-03    0.000000E+00
    0.147530E+00    0.288897E-03    0.000000E+00
    0.149259E+00    0.288897E-03    0.000000E+00
    0.151005E+00    0.288897E-03    0.000000E+00
    0.152768E+00    0.288897E-03    0.000000E+00
    0.154549E+00    0.288897E-03    0.000000E+00
    0.156348E+00    0.288897E-03    0.000000E+00
    0.158165E+00    0.288897E-03    0.000000E+00
    0.160000E+00    0.288897E-03    0.000000E+00
    0.142447E+00    0.572017E-03    0.000000E+00
    0.144124E+00    0.572017E-03    0.000000E+00
    0.145819E+00    0.572017E-03    0.000000E+00
    0.147530E+00    0.572017E-03    0.000000E+00
    0.149259E+00    0.572017E-03    0.000000E+00
    0.151005E+00    0.572017E-03    0.000000E+00
    0.152768E+00    0.572017E-03    0.000000E+00
    0.154549E+00    0.572017E-03    0.000000E+00
    0.156348E+00    0.572017E-03    0.000000E+00
    0.158165E+00    0.572017E-03    0.000000E+00
    0.160000E+00    0.572017E-03    0.000000E+00
    0.142447E+00    0.849473E-03    0.000000E+00
    0.144124E+00    0.849473E-03    0.000000E+00
    0.145819E+00    0.849473E-03    0.000000E+00
    0.147530E+00    0.849473E-03    0.000000E+00
    0.149259E+00    0.849473E-03    0.000000E+00
    0.151005E+00    0.849473E-03    0.000000E+00
    0.152768E+00    0.849473E-03    0.000000E+00
    0.154549E+00    0.849473E-03    0.000000E+00
    0.156348E+00    0.849473E-03    0.000000E+00
    0.158165E+00    0.849473E-03    0.000000E+00
    0.160000E+00    0.849473E-03    0.000000E+00
    0.142447E+00    0.112138E-02    0.000000E+00
    0.144124E+00    0.112138E-02    0.000000E+00
    0.145819E+00    0.112138E-02    0.000000E+00
    0.147530E+00    0.112138E-02    0.000000E+00
    0.149259E+00    0.112138E-02    0.000000E+00
    0.151005E+00    0.112138E-02    0.000000E+00
    0.152768E+00    0.112138E-02    0.000000E+00
    0.154549E+00    0.112138E-02    0.000000E+00
    0.156348E+00    0.112138E-02    0.000000E+00
    0.158165E+00    0.112138E-02    0.000000E+00
    0.160000E+00    0.112138E-02    0.000000E+00
    0.142447E+00    0.138785E-02    0.000000E+00
    0.144124E+00    0.138785E-02    0.000000E+00
    0.145819E+00    0.138785E-02    0.000000E+00
    0.147530E+00    0.138785E-02    0.000000E+00
    0.149259E+00    0.138785E-02    0.000000E+00
    0.151005E+00    0.138785E-02    0.000000E+00
    0.152768E+00    0.138785E-02    0.000000E+00
    0.154549E+00    0.138785E-02    0.000000E+00
    0.156348E+00    0.138785E-02    0.000000E+00
    0.158165E+00    0.138785E-02    0.000000E+00
    0.160000E+00    0.138785E-02    0.000000E+00
    0.142447E+00    0.164899E-02    0.000000E+00
    0.144124E+00    0.164899E-02    0.000000E+00
    0.145819E+00    0.164899E-02    0.000000E+00
    0.147530E+00    0.164899E-02    0.000000E+00
    0.149259E+00    0.164899E-02    0.000000E+00
    0.151005E+00    0.164899E-02    0.000000E+00
    0.152768E+00    0.164899E-02    0.000000E+00
    0.154549E+00    0.164899E-02    0.000000E+00
    0.156348E+00    0.164899E-02    0.000000E+00
    0.158165E+00    0.164899E-02    0.000000E+00
    0.160000E+00    0.164899E-02    0.000000E+00
    0.142447E+00    0.190491E-02    0.000000E+00
    0.144124E+00    0.190491E-02    0.000000E+00
    0.145819E+00    0.190491E-02    0.000000E+00
    0.147530E+00    0.190491E-02    0.000000E+00
    0.149259E+00    0.190491E-02    0.000000E+00
    0.151005E+00    0.190491E-02    0.000000E+00
    0.152768E+00    0.190491E-02    0.000000E+00
    0.154549E+00    0.190491E-02    0.000000E+00
    0.156348E+00    0.190491E-02    0.000000E+00
    0.158165E+00    0.190491E-02    0.000000E+00
    0.160000E+00    0.190491E-02    0.000000E+00
    0.142447E+00    0.215571E-02    0.000000E+00
    0.144124E+00    0.215571E-02    0.000000E+00
    0.145819E+00    0.215571E-02    0.000000E+00
    0.147530E+00    0.215571E-02    0.000000E+00
    0.149259E+00    0.215571E-02    0.000000E+00
    0.151005E+00    0.215571E-02    0.000000E+00
    0.152768E+00    0.215571E-02    0.000000E+00
    0.154549E+00    0.215571E-02    0.000000E+00
    0.156348E+00    0.215571E-02    0.000000E+00
    0.158165E+00    0.215571E-02    0.000000E+00
    0.160000E+00    0.215571E-02    0.000000E+00
    0.142447E+00    0.240149E-02    0.000000E+00
    0.144124E+00    0.240149E-02    0.000000E+00
    0.145819E+00    0.240149E-02    0.000000E+00
    0.147530E+00    0.240149E-02    0.000000E+00
    0.149259E+00    0.240149E-02    0.000000E+00
    0.151005E+00    0.240149E-02    0.000000E+00
    0.152768E+00    0.240149E-02    0.000000E+00
    0.154549E+00    0.240149E-02    0.000000E+00
    0.156348E+00    0.240149E-02    0.000000E+00
    0.158165E+00    0.240149E-02    0.000000E+00
    0.160000E+00    0.240149E-02    0.000000E+00
    0.142447E+00    0.264236E-02    0.000000E+00
    0.144124E+00    0.264236E-02    0.000000E+00
    0.145819E+00    0.264236E-02    0.000000E+00
    0.147530E+00    0.264236E-02    0.000000E+00
    0.149259E+00    0.264236E-02    0.000000E+00
    0.151005E+00    0.264236E-02    0.000000E+00
    0.152768E+00    0.264236E-02    0.000000E+00
    0.154549E+00    0.264236E-02    0.000000E+00
    0.156348E+00    0.264236E-02    0.000000E+00
    0.158165E+00    0.264236E-02    0.000000E+00
    0.160000E+00    0.264236E-02    0.000000E+00
    0.142447E+00    0.000000E+00    0.160000E-02
    0.144124E+00    0.000000E+00    0.160000E-02
    0.145819E+00    0.000000E+00    0.160000E-02
    0.147530E+00    0.000000E+00    0.160000E-02
    0.149259E+00    0.000000E+00    0.160000E-02
    0.151005E+00    0.000000E+00    0.160000E-02
    0.152768E+00    0.000000E+00    0.160000E-02
    0.154549E+00    0.000000E+00    0.160000E-02
    0.156348E+00    0.000000E+00    0.160000E-02
    0.158165E+00    0.000000E+00    0.160000E-02
    0.160000E+00    0.000000E+00    0.160000E-02
    0.142447E+00    0.288897E-03    0.160000E-02
    0.144124E+00    0.288897E-03    0.160000E-02
    0.145819E+00    0.288897E-03    0.160000E-02
    0.147530E+00    0.288897E-03    0.160000E-02
    0.149259E+00    0.288897E-03    0.160000E-02
    0.151005E+00    0.288897E-03    0.160000E-02
    0.152768E+00    0.288897E-03    0.160000E-02
    0.154549E+00    0.288897E-03    0.160000E-02
    0.156348E+00    0.288897E-03    0.160000E-02
    0.158165E+00    0.288897E-03    0.160000E-02
    0.160000E+00    0.288897E-03    0.160000E-02
    0.142447E+00    0.572017E-03    0.160000E-02
    0.144124E+00    0.572017E-03    0.160000E-02
    0.145819E+00    0.572017E-03    0.160000E-02
    0.147530E+00    0.572017E-03    0.160000E-02
    0.149259E+00    0.572017E-03    0.160000E-02
    0.151005E+00    0.572017E-03    0.160000E-02
    0.152768E+00    0.572017E-03    0.160000E-02
    0.154549E+00    0.572017E-03    0.160000E-02
    0.156348E+00    0.572017E-03    0.160000E-02
    0.158165E+00    0.572017E-03    0.160000E-02
    0.160000E+00    0.572017E-03    0.160000E-02
    0.142447E+00    0.849473E-03    0.160000E-02
    0.144124E+00    0.849473E-03    0.160000E-02
    0.145819E+00    0.849473E-03    0.160000E-02
    0.147530E+00    0.849473E-03    0.160000E-02
    0.149259E+00    0.849473E-03    0.160000E-02
    0.151005E+00    0.849473E-03    0.160000E-02
    0.152768E+00    0.849473E-03    0.160000E-02
    0.154549E+00    0.849473E-03    0.160000E-02
    0.156348E+00    0.849473E-03    0.160000E-02
    0.158165E+00    0.849473E-03    0.160000E-02
    0.160000E+00    0.849473E-03    0.160000E-02
    0.142447E+00    0.112138E-02    0.160000E-02
    0.144124E+00    0.112138E-02    0.160000E-02
    0.145819E+00    0.112138E-02    0.160000E-02
    0.147530E+00    0.112138E-02    0.160000E-02
    0.149259E+00    0.112138E-02    0.160000E-02
    0.151005E+00    0.112138E-02    0.160000E-02
    0.152768E+00    0.112138E-02    0.160000E-02
    0.154549E+00    0.112138E-02    0.160000E-02
    0.156348E+00    0.112138E-02    0.160000E-02
    0.158165E+00    0.112138E-02    0.160000E-02
    0.160000E+00    0.112138E-02    0.160000E-02
    0.142447E+00    0.138785E-02    0.160000E-02
    0.144124E+00    0.138785E-02    0.160000E-02
    0.145819E+00    0.138785E-02    0.160000E-02
    0.147530E+00    0.138785E-02    0.160000E-02
    0.149259E+00    0.138785E-02    0.160000E-02
    0.151005E+00    0.138785E-02    0.160000E-02
    0.152768E+00    0.138785E-02    0.160000E-02
    0.154549E+00    0.138785E-02    0.160000E-02
    0.156348E+00    0.138785E-02    0.160000E-02
    0.158165E+00    0.138785E-02    0.160000E-02
    0.160000E+00    0.138785E-02    0.160000E-02
    0.142447E+00    0.164899E-02    0.160000E-02
    0.144124E+00    0.164899E-02    0.160000E-02
    0.145819E+00    0.164899E-02    0.160000E-02
    0.147530E+00    0.164899E-02    0.160000E-02
    0.149259E+00    0.164899E-02    0.160000E-02
    0.151005E+00    0.164899E-02    0.160000E-02
    0.152768E+00    0.164899E-02    0.160000E-02
    0.154549E+00    0.164899E-02    0.160000E-02
    0.156348E+00    0.164899E-02    0.160000E-02
    0.158165E+00    0.164899E-02    0.160000E-02
    0.160000E+00    0.164899E-02    0.160000E-02
    0.142447E+00    0.190491E-02    0.160000E-02
    0.144124E+00    0.190491E-02    0.160000E-02
    0.145819E+00    0.190491E-02    0.160000E-02
    0.147530E+00    0.190491E-02    0.160000E-02
    0.149259E+00    0.190491E-02    0.160000E-02
    0.151005E+00    0.190491E-02    0.160000E-02
    0.152768E+00    0.190491E-02    0.160000E-02
    0.154549E+00    0.190491E-02    0.160000E-02
    0.156348E+00    0.190491E-02    0.160000E-02
    0.158165E+00    0.190491E-02    0.160000E-02
    0.160000E+00    0.190491E-02    0.160000E-02
    0.142447E+00    0.215571E-02    0.160000E-02
    0.144124E+00    0.215571E-02    0.160000E-02
    0.145819E+00    0.215571E-02    0.160000E-02
    0.147530E+00    0.215571E-02    0.160000E-02
    0.149259E+00    0.215571E-02    0.160000E-02
    0.151005E+00    0.215571E-02    0.160000E-02
    0.152768E+00    0.215571E-02    0.160000E-02
    0.154549E+00    0.215571E-02    0.160000E-02
    0.156348E+00    0.215571E-02    0.160000E-02
    0.158165E+00    0.215571E-02    0.160000E-02
    0.160000E+00    0.215571E-02    0.160000E-02
    0.142447E+00    0.240149E-02    0.160000E-02
    0.144124E+00    0.240149E-02    0.160000E-02
    0.145819E+00    0.240149E-02    0.160000E-02
    0.147530E+00    0.240149E-02    0.160000E-02
    0.149259E+00    0.240149E-02    0.160000E-02
    0.151005E+00    0.240149E-02    0.160000E-02
    0.152768E+00    0.240149E-02    0.160000E-02
    0.154549E+00    0.240149E-02    0.160000E-02
    0.156348E+00    0.240149E-02    0.160000E-02
    0.158165E+00    0.240149E-02    0.160000E-02
    0.160000E+00    0.240149E-02    0.160000E-02
    0.142447E+00    0.264236E-02    0.160000E-02
    0.144124E+00    0.264236E-02    0.160000E-02
    0.145819E+00    0.264236E-02    0.160000E-02
    0.147530E+00    0.264236E-02    0.160000E-02
    0.149259E+00    0.264236E-02    0.160000E-02
    0.151005E+00    0.264236E-02    0.160000E-02
    0.152768E+00    0.264236E-02    0.160000E-02
    0.154549E+00    0.264236E-02    0.160000E-02
    0.156348E+00    0.264236E-02    0.160000E-02
    0.158165E+00    0.264236E-02    0.160000E-02
    0.160000E+00    0.264236E-02    0.160000E-02
</DataArray>
</Points>
<PointData>
<DataArray Name="Velocity" type="Float64" format="ascii" NumberOfComponents="3">
    0.884059E-01    0.000000E+00    0.000000E+00
    0.884059E-01    0.000000E+00    0.000000E+00
    0.884059E-01    0.000000E+00    0.000000E+00
    0.884059E-01    0.000000E+00    0.000000E+00
    0.884060E-01    0.000000E+00    0.000000E+00
    0.884060E-01    0.000000E+00    0.000000E+00
    0.884060E-01    0.000000E+00    0.000000E+00
    0.884060E-01    0.000000E+00    0.000000E+00
    0.884060E-01    0.000000E+00    0.000000E+00
    0.884060E-01    0.000000E+00    0.000000E+00
    0.884060E-01    0.000000E+00    0.000000E+00
    0.884059E-01   -0.311065E-08    0.000000E+00
    0.884059E-01   -0.277104E-08    0.000000E+00
    0.884059E-01   -0.227232E-08    0.000000E+00
    0.884059E-01   -0.153314E-08    0.000000E+00
    0.884060E-01   -0.101234E-08    0.000000E+00
    0.884060E-01   -0.657795E-09    0.000000E+00
    0.884060E-01   -0.414584E-09    0.000000E+00
    0.884060E-01   -0.164435E-09    0.000000E+00
    0.884060E-01   -0.363834E-10    0.000000E+00
    0.884060E-01   -0.157610E-11    0.000000E+00
    0.884060E-01    0.722575E-10    0.000000E+00
    0.884059E-01   -0.620506E-08    0.000000E+00
    0.884059E-01   -0.548521E-08    0.000000E+00
    0.884059E-01   -0.446549E-08    0.000000E+00
    0.884059E-01   -0.303889E-08    0.000000E+00
    0.884060E-01   -0.200201E-08    0.000000E+00
    0.884060E-01   -0.130969E-08    0.000000E+00
    0.884060E-01   -0.818074E-09    0.000000E+00
    0.884060E-01   -0.318064E-09    0.000000E+00
    0.884060E-01   -0.649675E-10    0.000000E+00
    0.884060E-01    0.624746E-11    0.000000E+00
    0.884060E-01    0.142759E-09    0.000000E+00
    0.884059E-01   -0.926969E-08    0.000000E+00
    0.884059E-01   -0.814651E-08    0.000000E+00
    0.884059E-01   -0.659377E-08    0.000000E+00
    0.884059E-01   -0.451196E-08    0.000000E+00
    0.884060E-01   -0.296567E-08    0.000000E+00
    0.884060E-01   -0.195081E-08    0.000000E+00
    0.884060E-01   -0.121137E-08    0.000000E+00
    0.884060E-01   -0.460836E-09    0.000000E+00
    0.884060E-01   -0.852900E-10    0.000000E+00
    0.884060E-01    0.198961E-10    0.000000E+00
    0.884060E-01    0.211141E-09    0.000000E+00
    0.884059E-01   -0.122863E-07    0.000000E+00
    0.884059E-01   -0.107597E-07    0.000000E+00
    0.884059E-01   -0.867504E-08    0.000000E+00
    0.884059E-01   -0.594736E-08    0.000000E+00
    0.884060E-01   -0.390067E-08    0.000000E+00
    0.884060E-01   -0.257571E-08    0.000000E+00
    0.884060E-01   -0.159570E-08    0.000000E+00
    0.884060E-01   -0.593528E-09    0.000000E+00
    0.884060E-01   -0.977235E-10    0.000000E+00
    0.884060E-01    0.350305E-10    0.000000E+00
    0.884060E-01    0.277089E-09    0.000000E+00
    0.884059E-01   -0.152559E-07    0.000000E+00
    0.884059E-01   -0.133262E-07    0.000000E+00
    0.884059E-01   -0.107115E-07    0.000000E+00
    0.884059E-01   -0.734255E-08    0.000000E+00
    0.884060E-01   -0.480411E-08    0.000000E+00
    0.884060E-01   -0.318297E-08    0.000000E+00
    0.884060E-01   -0.197147E-08    0.000000E+00
    0.884060E-01   -0.714919E-09    0.000000E+00
    0.884060E-01   -0.100971E-09    0.000000E+00
    0.884060E-01    0.509037E-10    0.000000E+00
    0.884060E-01    0.340255E-09    0.000000E+00
    0.884059E-01   -0.181821E-07    0.000000E+00
    0.884059E-01   -0.158466E-07    0.000000E+00
    0.884059E-01   -0.127026E-07    0.000000E+00
    0.884059E-01   -0.869551E-08    0.000000E+00
    0.884060E-01   -0.567325E-08    0.000000E+00
    0.884060E-01   -0.377199E-08    0.000000E+00
    0.884060E-01   -0.233921E-08    0.000000E+00
    0.884060E-01   -0.823423E-09    0.000000E+00
    0.884060E-01   -0.936513E-10    0.000000E+00
    0.884060E-01    0.670710E-10    0.000000E+00
    0.884060E-01    0.400220E-09    0.000000E+00
    0.884059E-01   -0.210689E-07    0.000000E+00
    0.884059E-01   -0.183209E-07    0.000000E+00
    0.884059E-01   -0.146468E-07    0.000000E+00
    0.884060E-01   -0.100045E-07    0.000000E+00
    0.884060E-01   -0.650552E-08    0.000000E+00
    0.884060E-01   -0.434249E-08    0.000000E+00
    0.884060E-01   -0.269964E-08    0.000000E+00
    0.884060E-01   -0.917344E-09    0.000000E+00
    0.884060E-01   -0.746144E-10    0.000000E+00
    0.884060E-01    0.829275E-10    0.000000E+00
    0.884060E-01    0.456466E-09    0.000000E+00
    0.884059E-01   -0.239203E-07    0.000000E+00
    0.884059E-01   -0.207486E-07    0.000000E+00
    0.884059E-01   -0.165423E-07    0.000000E+00
    0.884060E-01   -0.112679E-07    0.000000E+00
    0.884060E-01   -0.729850E-08    0.000000E+00
    0.884060E-01   -0.489436E-08    0.000000E+00
    0.884060E-01   -0.305363E-08    0.000000E+00
    0.884060E-01   -0.995116E-09    0.000000E+00
    0.884060E-01   -0.430326E-10    0.000000E+00
    0.884060E-01    0.977166E-10    0.000000E+00
    0.884060E-01    0.508343E-09    0.000000E+00
    0.884059E-01   -0.267140E-07    0.000000E+00
    0.884059E-01   -0.230967E-07    0.000000E+00
    0.884059E-01   -0.183980E-07    0.000000E+00
    0.884060E-01   -0.124796E-07    0.000000E+00
    0.884060E-01   -0.805243E-08    0.000000E+00
    0.884060E-01   -0.542599E-08    0.000000E+00
    0.884060E-01   -0.340466E-08    0.000000E+00
    0.884060E-01   -0.105281E-08    0.000000E+00
    0.884060E-01    0.398348E-11    0.000000E+00
    0.884060E-01    0.105521E-09    0.000000E+00
    0.884060E-01    0.552292E-09    0.000000E+00
    0.884059E-01   -0.307586E-07    0.000000E+00
    0.884059E-01   -0.322751E-07    0.000000E+00
    0.884059E-01   -0.604668E-08    0.000000E+00
    0.884060E-01   -0.137205E-07    0.000000E+00
    0.884060E-01   -0.780694E-08    0.000000E+00
    0.884060E-01   -0.790229E-08    0.000000E+00
    0.884060E-01   -0.283927E-08    0.000000E+00
    0.884060E-01   -0.265384E-08    0.000000E+00
    0.884060E-01    0.694485E-11    0.000000E+00
    0.884060E-01    0.610065E-08    0.000000E+00
    0.884060E-01    0.616574E-08    0.000000E+00
    0.884059E-01    0.000000E+00    0.000000E+00
    0.884059E-01    0.000000E+00    0.000000E+00
    0.884059E-01    0.000000E+00    0.000000E+00
    0.884059E-01    0.000000E+00    0.000000E+00
    0.884060E-01    0.000000E+00    0.000000E+00
    0.884060E-01    0.000000E+00    0.000000E+00
    0.884060E-01    0.000000E+00    0.000000E+00
    0.884060E-01    0.000000E+00    0.000000E+00
    0.884060E-01    0.000000E+00    0.000000E+00
    0.884060E-01    0.000000E+00    0.000000E+00
    0.884060E-01    0.000000E+00    0.000000E+00
    0.884059E-01   -0.319569E-08    0.782719E-24
    0.884059E-01   -0.277104E-08    0.678709E-24
    0.884059E-01   -0.227232E-08    0.556559E-24
    0.884059E-01   -0.153314E-08    0.375512E-24
    0.884060E-01   -0.101234E-08    0.247952E-24
    0.884060E-01   -0.657795E-09    0.161113E-24
    0.884060E-01   -0.414584E-09    0.101544E-24
    0.884060E-01   -0.164435E-09    0.402749E-25
    0.884060E-01   -0.363834E-10    0.891135E-26
    0.884060E-01   -0.157610E-11    0.386033E-27
    0.884060E-01    0.722575E-10   -0.176980E-25
    0.884059E-01   -0.636365E-08    0.155864E-23
    0.884059E-01   -0.548521E-08    0.134349E-23
    0.884059E-01   -0.446549E-08    0.109373E-23
    0.884059E-01   -0.303889E-08    0.744313E-24
    0.884060E-01   -0.200201E-08    0.490351E-24
    0.884060E-01   -0.130969E-08    0.320782E-24
    0.884060E-01   -0.818074E-09    0.200370E-24
    0.884060E-01   -0.318064E-09    0.779031E-25
    0.884060E-01   -0.649675E-10    0.159124E-25
    0.884060E-01    0.624746E-11   -0.153019E-26
    0.884060E-01    0.142759E-09   -0.349658E-25
    0.884059E-01   -0.949520E-08    0.232565E-23
    0.884059E-01   -0.814651E-08    0.199532E-23
    0.884059E-01   -0.659377E-08    0.161501E-23
    0.884059E-01   -0.451196E-08    0.110511E-23
    0.884060E-01   -0.296567E-08    0.726381E-24
    0.884060E-01   -0.195081E-08    0.477811E-24
    0.884060E-01   -0.121137E-08    0.296700E-24
    0.884060E-01   -0.460836E-09    0.112872E-24
    0.884060E-01   -0.852900E-10    0.208900E-25
    0.884060E-01    0.198961E-10   -0.487315E-26
    0.884060E-01    0.211141E-09   -0.517147E-25
    0.884059E-01   -0.125776E-07    0.308062E-23
    0.884059E-01   -0.107597E-07    0.263537E-23
    0.884059E-01   -0.867504E-08    0.212477E-23
    0.884059E-01   -0.594736E-08    0.145668E-23
    0.884060E-01   -0.390067E-08    0.955389E-24
    0.884060E-01   -0.257571E-08    0.630867E-24
    0.884060E-01   -0.159570E-08    0.390833E-24
    0.884060E-01   -0.593528E-09    0.145372E-24
    0.884060E-01   -0.977235E-10    0.239354E-25
    0.884060E-01    0.350305E-10   -0.858001E-26
    0.884060E-01    0.277089E-09   -0.678672E-25
    0.884059E-01   -0.156132E-07    0.382412E-23
    0.884059E-01   -0.133262E-07    0.326398E-23
    0.884059E-01   -0.107115E-07    0.262356E-23
    0.884059E-01   -0.734255E-08    0.179841E-23
    0.884060E-01   -0.480411E-08    0.117667E-23
    0.884060E-01   -0.318297E-08    0.779603E-24
    0.884060E-01   -0.197147E-08    0.482871E-24
    0.884060E-01   -0.714919E-09    0.175105E-24
    0.884060E-01   -0.100971E-09    0.247307E-25
    0.884060E-01    0.509037E-10   -0.124678E-25
    0.884060E-01    0.340255E-09   -0.833384E-25
    0.884059E-01   -0.186062E-07    0.455721E-23
    0.884059E-01   -0.158466E-07    0.388130E-23
    0.884059E-01   -0.127026E-07    0.311124E-23
    0.884059E-01   -0.869551E-08    0.212979E-23
    0.884060E-01   -0.567325E-08    0.138955E-23
    0.884060E-01   -0.377199E-08    0.923871E-24
    0.884060E-01   -0.233921E-08    0.572941E-24
    0.884060E-01   -0.823423E-09    0.201680E-24
    0.884060E-01   -0.936513E-10    0.229380E-25
    0.884060E-01    0.670710E-10   -0.164277E-25
    0.884060E-01    0.400220E-09   -0.980256E-25
    0.884059E-01   -0.215614E-07    0.528102E-23
    0.884059E-01   -0.183209E-07    0.448733E-23
    0.884059E-01   -0.146468E-07    0.358744E-23
    0.884060E-01   -0.100045E-07    0.245039E-23
    0.884060E-01   -0.650552E-08    0.159339E-23
    0.884060E-01   -0.434249E-08    0.106360E-23
    0.884060E-01   -0.269964E-08    0.661220E-24
    0.884060E-01   -0.917344E-09    0.224685E-24
    0.884060E-01   -0.746144E-10    0.182753E-25
    0.884060E-01    0.829275E-10   -0.203114E-25
    0.884060E-01    0.456466E-09   -0.111802E-24
    0.884059E-01   -0.244835E-07    0.599674E-23
    0.884059E-01   -0.207486E-07    0.508193E-23
    0.884059E-01   -0.165423E-07    0.405169E-23
    0.884060E-01   -0.112679E-07    0.275983E-23
    0.884060E-01   -0.729850E-08    0.178762E-23
    0.884060E-01   -0.489436E-08    0.119877E-23
    0.884060E-01   -0.305363E-08    0.747924E-24
    0.884060E-01   -0.995116E-09    0.243733E-24
    0.884060E-01   -0.430326E-10    0.105399E-25
    0.884060E-01    0.977166E-10   -0.239337E-25
    0.884060E-01    0.508343E-09   -0.124508E-24
    0.884059E-01   -0.273759E-07    0.670517E-23
    0.884059E-01   -0.230967E-07    0.565707E-23
    0.884059E-01   -0.183980E-07    0.450622E-23
    0.884060E-01   -0.124796E-07    0.305663E-23
    0.884060E-01   -0.805243E-08    0.197228E-23
    0.884060E-01   -0.542599E-08    0.132898E-23
    0.884060E-01   -0.340466E-08    0.833902E-24
    0.884060E-01   -0.105281E-08    0.257864E-24
    0.884060E-01    0.398348E-11   -0.975671E-27
    0.884060E-01    0.105521E-09   -0.258453E-25
    0.884060E-01    0.552292E-09   -0.135272E-24
    0.884059E-01   -0.166267E-07    0.407235E-23
    0.884059E-01   -0.322751E-07    0.790513E-23
    0.884059E-01   -0.604668E-08    0.148101E-23
    0.884060E-01   -0.137205E-07    0.336056E-23
    0.884060E-01   -0.780694E-08    0.191215E-23
    0.884060E-01   -0.790229E-08    0.193550E-23
    0.884060E-01   -0.283927E-08    0.695422E-24
    0.884060E-01   -0.265384E-08    0.650004E-24
    0.884060E-01    0.694485E-11   -0.170100E-26
    0.884060E-01    0.610065E-08   -0.149423E-23
    0.884060E-01    0.616574E-08   -0.151017E-23
</DataArray>
</PointData>
<CellData>
<DataArray Name="DP" type="Float64" format="ascii" NumberOfComponents="1">
      0.000000E+0000
      0.000000E+0000
      0.000000E+0000
      0.000000E+0000
      0.000000E+0000
      0.000000E+0000
      0.000000E+0000
      0.000000E+0000
      0.000000E+0000
      0.000000E+0000
      0.000000E+0000
      0.000000E+0000
      0.000000E+0000
      0.000000E+0000
      0.000000E+0000
      0.000000E+0000
      0.000000E+0000
      0.000000E+0000
      0.000000E+0000
      0.000000E+0000
      0.000000E+0000
      0.000000E+0000
      0.000000E+0000
      0.000000E+0000
      0.000000E+0000
      0.000000E+0000
      0.000000E+0000
      0.000000E+0000
      0.000000E+0000
      0.000000E+0000
      0.000000E+0000
      0.000000E+0000
      0.000000E+0000
      0.000000E+0000
      0.000000E+0000
      0.000000E+0000
      0.000000E+0000
      0.000000E+0000
      0.000000E+0000
      0.000000E+0000
      0.000000E+0000
      0.000000E+0000
      0.000000E+0000
      0.000000E+0000
      0.000000E+0000
      0.000000E+0000
      0.000000E+0000
      0.000000E+0000
      0.000000E+0000
      0.000000E+0000
      0.000000E+0000
      0.000000E+0000
      0.000000E+0000
      0.000000E+0000
      0.000000E+0000
      0.000000E+0000
      0.000000E+0000
      0.000000E+0000
      0.000000E+0000
      0.000000E+0000
      0.000000E+0000
      0.000000E+0000
      0.000000E+0000
      0.000000E+0000
      0.000000E+0000
      0.000000E+0000
      0.000000E+0000
      0.000000E+0000
      0.000000E+0000
      0.000000E+0000
      0.000000E+0000
      0.000000E+0000
      0.000000E+0000
      0.000000E+0000
      0.000000E+0000
      0.000000E+0000
      0.000000E+0000
      0.000000E+0000
      0.000000E+0000
      0.000000E+0000
      0.000000E+0000
      0.000000E+0000
      0.000000E+0000
      0.000000E+0000
      0.000000E+0000
      0.000000E+0000
      0.000000E+0000
      0.000000E+0000
      0.000000E+0000
      0.000000E+0000
      0.000000E+0000
      0.000000E+0000
      0.000000E+0000
      0.000000E+0000
      0.000000E+0000
      0.000000E+0000
      0.000000E+0000
      0.000000E+0000
      0.000000E+0000
      0.000000E+0000
</DataArray>
<DataArray Name="P" type="Float64" format="ascii" NumberOfComponents="1">
     -0.101422E+0001
     -0.103360E+0001
     -0.105319E+0001
     -0.107296E+0001
     -0.109293E+0001
     -0.111311E+0001
     -0.113348E+0001
     -0.115406E+0001
     -0.117484E+0001
     -0.119584E+0001
     -0.101422E+0001
     -0.103360E+0001
     -0.105319E+0001
     -0.107296E+0001
     -0.109293E+0001
     -0.111311E+0001
     -0.113348E+0001
     -0.115406E+0001
     -0.117484E+0001
     -0.119584E+0001
     -0.101422E+0001
     -0.103360E+0001
     -0.105319E+0001
     -0.107296E+0001
     -0.109293E+0001
     -0.111311E+0001
     -0.113348E+0001
     -0.115406E+0001
     -0.117484E+0001
     -0.119584E+0001
     -0.101422E+0001
     -0.103360E+0001
     -0.105319E+0001
     -0.107296E+0001
     -0.109293E+0001
     -0.111311E+0001
     -0.113348E+0001
     -0.115406E+0001
     -0.117484E+0001
     -0.119584E+0001
     -0.101422E+0001
     -0.103360E+0001
     -0.105319E+0001
     -0.107296E+0001
     -0.109293E+0001
     -0.111311E+0001
     -0.113348E+0001
     -0.115406E+0001
     -0.117484E+0001
     -0.119584E+0001
     -0.101422E+0001
     -0.103360E+0001
     -0.105319E+0001
     -0.107296E+0001
     -0.109293E+0001
     -0.111311E+0001
     -0.113348E+0001
     -0.115406E+0001
     -0.117484E+0001
     -0.119584E+0001
     -0.101422E+0001
     -0.103360E+0001
     -0.105319E+0001
     -0.107296E+0001
     -0.109293E+0001
     -0.111311E+0001
     -0.113348E+0001
     -0.115406E+0001
     -0.117484E+0001
     -0.119584E+0001
     -0.101422E+0001
     -0.103360E+0001
     -0.105319E+0001
     -0.107296E+0001
     -0.109293E+0001
     -0.111311E+0001
     -0.113348E+0001
     -0.115406E+0001
     -0.117484E+0001
     -0.119584E+0001
     -0.101422E+0001
     -0.103360E+0001
     -0.105319E+0001
     -0.107296E+0001
     -0.109293E+0001
     -0.111311E+0001
     -0.113348E+0001
     -0.115406E+0001
     -0.117484E+0001
     -0.119584E+0001
     -0.101422E+0001
     -0.103360E+0001
     -0.105319E+0001
     -0.107296E+0001
     -0.109293E+0001
     -0.111311E+0001
     -0.113348E+0001
     -0.115406E+0001
     -0.117484E+0001
     -0.119584E+0001
</DataArray>
<DataArray Name="RHO" type="Float64" format="ascii" NumberOfComponents="1">
      0.117197E+0001
      0.117197E+0001
      0.117197E+0001
      0.117197E+0001
      0.117197E+0001
      0.117197E+0001
      0.117197E+0001
      0.117197E+0001
      0.117197E+0001
      0.117197E+0001
      0.117197E+0001
      0.117197E+0001
      0.117197E+0001
      0.117197E+0001
      0.117197E+0001
      0.117197E+0001
      0.117197E+0001
      0.117197E+0001
      0.117197E+0001
      0.117197E+0001
      0.117197E+0001
      0.117197E+0001
      0.117197E+0001
      0.117197E+0001
      0.117197E+0001
      0.117197E+0001
      0.117197E+0001
      0.117197E+0001
      0.117197E+0001
      0.117197E+0001
      0.117197E+0001
      0.117197E+0001
      0.117197E+0001
      0.117197E+0001
      0.117197E+0001
      0.117197E+0001
      0.117197E+0001
      0.117197E+0001
      0.117197E+0001
      0.117197E+0001
      0.117197E+0001
      0.117197E+0001
      0.117197E+0001
      0.117197E+0001
      0.117197E+0001
      0.117197E+0001
      0.117197E+0001
      0.117197E+0001
      0.117197E+0001
      0.117197E+0001
      0.117197E+0001
      0.117197E+0001
      0.117197E+0001
      0.117197E+0001
      0.117197E+0001
      0.117197E+0001
      0.117197E+0001
      0.117197E+0001
      0.117197E+0001
      0.117197E+0001
      0.117197E+0001
      0.117197E+0001