<?xml version="1.0"?>
<VTKFile type="StructuredGrid" version="0.1" byte_order="LittleEndian">
<StructuredGrid WholeExtent="          40          50          20          30           0           1">
<Piece Extent="          40          50          20          30           0           1">
<Points>
<DataArray NumberOfComponents="3" type="Float64" format="ascii">
    0.123841E-01    0.480136E-02    0.000000E+00
    0.127613E-01    0.480136E-02    0.000000E+00
    0.131422E-01    0.480136E-02    0.000000E+00
    0.135269E-01    0.480136E-02    0.000000E+00
    0.139155E-01    0.480136E-02    0.000000E+00
    0.143080E-01    0.480136E-02    0.000000E+00
    0.147044E-01    0.480136E-02    0.000000E+00
    0.151048E-01    0.480136E-02    0.000000E+00
    0.155092E-01    0.480136E-02    0.000000E+00
    0.159176E-01    0.480136E-02    0.000000E+00
    0.163301E-01    0.480136E-02    0.000000E+00
    0.123841E-01    0.499423E-02    0.000000E+00
    0.127613E-01    0.499423E-02    0.000000E+00
    0.131422E-01    0.499423E-02    0.000000E+00
    0.135269E-01    0.499423E-02    0.000000E+00
    0.139155E-01    0.499423E-02    0.000000E+00
    0.143080E-01    0.499423E-02    0.000000E+00
    0.147044E-01    0.499423E-02    0.000000E+00
    0.151048E-01    0.499423E-02    0.000000E+00
    0.155092E-01    0.499423E-02    0.000000E+00
    0.159176E-01    0.499423E-02    0.000000E+00
    0.163301E-01    0.499423E-02    0.000000E+00
    0.123841E-01    0.518324E-02    0.000000E+00
    0.127613E-01    0.518324E-02    0.000000E+00
    0.131422E-01    0.518324E-02    0.000000E+00
    0.135269E-01    0.518324E-02    0.000000E+00
    0.139155E-01    0.518324E-02    0.000000E+00
    0.143080E-01    0.518324E-02    0.000000E+00
    0.147044E-01    0.518324E-02    0.000000E+00
    0.151048E-01    0.518324E-02    0.000000E+00
    0.155092E-01    0.518324E-02    0.000000E+00
    0.159176E-01    0.518324E-02    0.000000E+00
    0.163301E-01    0.518324E-02    0.000000E+00
    0.123841E-01    0.536847E-02    0.000000E+00
    0.127613E-01    0.536847E-02    0.000000E+00
    0.131422E-01    0.536847E-02    0.000000E+00
    0.135269E-01    0.536847E-02    0.000000E+00
    0.139155E-01    0.536847E-02    0.000000E+00
    0.143080E-01    0.536847E-02    0.000000E+00
    0.147044E-01    0.536847E-02    0.000000E+00
    0.151048E-01    0.536847E-02    0.000000E+00
    0.155092E-01    0.536847E-02    0.000000E+00
    0.159176E-01    0.536847E-02    0.000000E+00
    0.163301E-01    0.536847E-02    0.000000E+00
    0.123841E-01    0.555000E-02    0.000000E+00
    0.127613E-01    0.555000E-02    0.000000E+00
    0.131422E-01    0.555000E-02    0.000000E+00
    0.135269E-01    0.555000E-02    0.000000E+00
    0.139155E-01    0.555000E-02    0.000000E+00
    0.143080E-01    0.555000E-02    0.000000E+00
    0.147044E-01    0.555000E-02    0.000000E+00
    0.151048E-01    0.555000E-02    0.000000E+00
    0.155092E-01    0.555000E-02    0.000000E+00
    0.159176E-01    0.555000E-02    0.000000E+00
    0.163301E-01    0.555000E-02    0.000000E+00
    0.123841E-01    0.572725E-02    0.000000E+00
    0.127613E-01    0.572725E-02    0.000000E+00
    0.131422E-01    0.572725E-02    0.000000E+00
    0.135269E-01    0.572725E-02    0.000000E+00
    0.139155E-01    0.572725E-02    0.000000E+00
    0.143080E-01    0.572725E-02    0.000000E+00
    0.147044E-01    0.572725E-02    0.000000E+00
    0.151048E-01    0.572725E-02    0.000000E+00
    0.155092E-01    0.572725E-02    0.000000E+00
    0.159176E-01    0.572725E-02    0.000000E+00
    0.163301E-01    0.572725E-02    0.000000E+00
    0.123841E-01    0.590981E-02    0.000000E+00
    0.127613E-01    0.590981E-02    0.000000E+00
    0.131422E-01    0.590981E-02    0.000000E+00
    0.135269E-01    0.590981E-02    0.000000E+00
    0.139155E-01    0.590981E-02    0.000000E+00
    0.143080E-01    0.590981E-02    0.000000E+00
    0.147044E-01    0.590981E-02    0.000000E+00
    0.151048E-01    0.590981E-02    0.000000E+00
    0.155092E-01    0.590981E-02    0.000000E+00
    0.159176E-01    0.590981E-02    0.000000E+00
    0.163301E-01    0.590981E-02    0.000000E+00
    0.123841E-01    0.609785E-02    0.000000E+00
    0.127613E-01    0.609785E-02    0.000000E+00
    0.131422E-01    0.609785E-02    0.000000E+00
    0.135269E-01    0.609785E-02    0.000000E+00
    0.139155E-01    0.609785E-02    0.000000E+00
    0.143080E-01    0.609785E-02    0.000000E+00
    0.147044E-01    0.609785E-02    0.000000E+00
    0.151048E-01    0.609785E-02    0.000000E+00
    0.155092E-01    0.609785E-02    0.000000E+00
    0.159176E-01    0.609785E-02    0.000000E+00
    0.163301E-01    0.609785E-02    0.000000E+00
    0.123841E-01    0.629154E-02    0.000000E+00
    0.127613E-01    0.629154E-02    0.000000E+00
    0.131422E-01    0.629154E-02    0.000000E+00
    0.135269E-01    0.629154E-02    0.000000E+00
    0.139155E-01    0.629154E-02    0.000000E+00
    0.143080E-01    0.629154E-02    0.000000E+00
    0.147044E-01    0.629154E-02    0.000000E+00
    0.151048E-01    0.629154E-02    0.000000E+00
    0.155092E-01    0.629154E-02    0.000000E+00
    0.159176E-01    0.629154E-02    0.000000E+00
    0.163301E-01    0.629154E-02    0.000000E+00
    0.123841E-01    0.649103E-02    0.000000E+00
    0.127613E-01    0.649103E-02    0.000000E+00
    0.131422E-01    0.649103E-02    0.000000E+00
    0.135269E-01    0.649103E-02    0.000000E+00
    0.139155E-01    0.649103E-02    0.000000E+00
    0.143080E-01    0.649103E-02    0.000000E+00
    0.147044E-01    0.649103E-02    0.000000E+00
    0.151048E-01    0.649103E-02    0.000000E+00
    0.155092E-01    0.649103E-02    0.000000E+00
    0.159176E-01    0.649103E-02    0.000000E+00
    0.163301E-01    0.649103E-02    0.000000E+00
    0.123841E-01    0.669651E-02    0.000000E+00
    0.127613E-01    0.669651E-02    0.000000E+00
    0.131422E-01    0.669651E-02    0.000000E+00
    0.135269E-01    0.669651E-02    0.000000E+00
    0.139155E-01    0.669651E-02    0.000000E+00
    0.143080E-01    0.669651E-02    0.000000E+00
    0.147044E-01    0.669651E-02    0.000000E+00
    0.151048E-01    0.669651E-02    0.000000E+00
    0.155092E-01    0.669651E-02    0.000000E+00
    0.159176E-01    0.669651E-02    0.000000E+00
    0.163301E-01    0.669651E-02    0.000000E+00
    0.123841E-01    0.480136E-02    0.160000E-02
    0.127613E-01    0.480136E-02    0.160000E-02
    0.131422E-01    0.480136E-02    0.160000E-02
    0.135269E-01    0.480136E-02    0.160000E-02
    0.139155E-01    0.480136E-02    0.160000E-02
    0.143080E-01    0.480136E-02    0.160000E-02
    0.147044E-01    0.480136E-02    0.160000E-02
    0.151048E-01    0.480136E-02    0.160000E-02
    0.155092E-01    0.480136E-02    0.160000E-02
    0.159176E-01    0.480136E-02    0.160000E-02
    0.163301E-01    0.480136E-02    0.160000E-02
    0.123841E-01    0.499423E-02    0.160000E-02
    0.127613E-01    0.499423E-02    0.160000E-02
    0.131422E-01    0.499423E-02    0.160000E-02
    0.135269E-01    0.499423E-02    0.160000E-02
    0.139155E-01    0.499423E-02    0.160000E-02
    0.143080E-01    0.499423E-02    0.160000E-02
    0.147044E-01    0.499423E-02    0.160000E-02
    0.151048E-01    0.499423E-02    0.160000E-02
    0.155092E-01    0.499423E-02    0.160000E-02
    0.159176E-01    0.499423E-02    0.160000E-02
    0.163301E-01    0.499423E-02    0.160000E-02
    0.123841E-01    0.518324E-02    0.160000E-02
    0.127613E-01    0.518324E-02    0.160000E-02
    0.131422E-01    0.518324E-02    0.160000E-02
    0.135269E-01    0.518324E-02    0.160000E-02
    0.139155E-01    0.518324E-02    0.160000E-02
    0.143080E-01    0.518324E-02    0.160000E-02
    0.147044E-01    0.518324E-02    0.160000E-02
    0.151048E-01    0.518324E-02    0.160000E-02
    0.155092E-01    0.518324E-02    0.160000E-02
    0.159176E-01    0.518324E-02    0.160000E-02
    0.163301E-01    0.518324E-02    0.160000E-02
    0.123841E-01    0.536847E-02    0.160000E-02
    0.127613E-01    0.536847E-02    0.160000E-02
    0.131422E-01    0.536847E-02    0.160000E-02
    0.135269E-01    0.536847E-02    0.160000E-02
    0.139155E-01    0.536847E-02    0.160000E-02
    0.143080E-01    0.536847E-02    0.160000E-02
    0.147044E-01    0.536847E-02    0.160000E-02
    0.151048E-01    0.536847E-02    0.160000E-02
    0.155092E-01    0.536847E-02    0.160000E-02
    0.159176E-01    0.536847E-02    0.160000E-02
    0.163301E-01    0.536847E-02    0.160000E-02
    0.123841E-01    0.555000E-02    0.160000E-02
    0.127613E-01    0.555000E-02    0.160000E-02
    0.131422E-01    0.555000E-02    0.160000E-02
    0.135269E-01    0.555000E-02    0.160000E-02
    0.139155E-01    0.555000E-02    0.160000E-02
    0.143080E-01    0.555000E-02    0.160000E-02
    0.147044E-01    0.555000E-02    0.160000E-02
    0.151048E-01    0.555000E-02    0.160000E-02
    0.155092E-01    0.555000E-02    0.160000E-02
    0.159176E-01    0.555000E-02    0.160000E-02
    0.163301E-01    0.555000E-02    0.160000E-02
    0.123841E-01    0.572725E-02    0.160000E-02
    0.127613E-01    0.572725E-02    0.160000E-02
    0.131422E-01    0.572725E-02    0.160000E-02
    0.135269E-01    0.572725E-02    0.160000E-02
    0.139155E-01    0.572725E-02    0.160000E-02
    0.143080E-01    0.572725E-02    0.160000E-02
    0.147044E-01    0.572725E-02    0.160000E-02
    0.151048E-01    0.572725E-02    0.160000E-02
    0.155092E-01    0.572725E-02    0.160000E-02
    0.159176E-01    0.572725E-02    0.160000E-02
    0.163301E-01    0.572725E-02    0.160000E-02
    0.123841E-01    0.590981E-02    0.160000E-02
    0.127613E-01    0.590981E-02    0.160000E-02
    0.131422E-01    0.590981E-02    0.160000E-02
    0.135269E-01    0.590981E-02    0.160000E-02
    0.139155E-01    0.590981E-02    0.160000E-02
    0.143080E-01    0.590981E-02    0.160000E-02
    0.147044E-01    0.590981E-02    0.160000E-02
    0.151048E-01    0.590981E-02    0.160000E-02
    0.155092E-01    0.590981E-02    0.160000E-02
    0.159176E-01    0.590981E-02    0.160000E-02
    0.163301E-01    0.590981E-02    0.160000E-02
    0.123841E-01    0.609785E-02    0.160000E-02
    0.127613E-01    0.609785E-02    0.160000E-02
    0.131422E-01    0.609785E-02    0.160000E-02
    0.135269E-01    0.609785E-02    0.160000E-02
    0.139155E-01    0.609785E-02    0.160000E-02
    0.143080E-01    0.609785E-02    0.160000E-02
    0.147044E-01    0.609785E-02    0.160000E-02
    0.151048E-01    0.609785E-02    0.160000E-02
    0.155092E-01    0.609785E-02    0.160000E-02
    0.159176E-01    0.609785E-02    0.160000E-02
    0.163301E-01    0.609785E-02    0.160000E-02
    0.123841E-01    0.629154E-02    0.160000E-02
    0.127613E-01    0.629154E-02    0.160000E-02
    0.131422E-01    0.629154E-02    0.160000E-02
    0.135269E-01    0.629154E-02    0.160000E-02
    0.139155E-01    0.629154E-02    0.160000E-02
    0.143080E-01    0.629154E-02    0.160000E-02
    0.147044E-01    0.629154E-02    0.160000E-02
    0.151048E-01    0.629154E-02    0.160000E-02
    0.155092E-01    0.629154E-02    0.160000E-02
    0.159176E-01    0.629154E-02    0.160000E-02
    0.163301E-01    0.629154E-02    0.160000E-02
    0.123841E-01    0.649103E-02    0.160000E-02
    0.127613E-01    0.649103E-02    0.160000E-02
    0.131422E-01    0.649103E-02    0.160000E-02
    0.135269E-01    0.649103E-02    0.160000E-02
    0.139155E-01    0.649103E-02    0.160000E-02
    0.143080E-01    0.649103E-02    0.160000E-02
    0.147044E-01    0.649103E-02    0.160000E-02
    0.151048E-01    0.649103E-02    0.160000E-02
    0.155092E-01    0.649103E-02    0.160000E-02
    0.159176E-01    0.649103E-02    0.160000E-02
    0.163301E-01    0.649103E-02    0.160000E-02
    0.123841E-01    0.669651E-02    0.160000E-02
    0.127613E-01    0.669651E-02    0.160000E-02
    0.131422E-01    0.669651E-02    0.160000E-02
    0.135269E-01    0.669651E-02    0.160000E-02
    0.139155E-01    0.669651E-02    0.160000E-02
    0.143080E-01    0.669651E-02    0.160000E-02
    0.147044E-01    0.669651E-02    0.160000E-02
    0.151048E-01    0.669651E-02    0.160000E-02
    0.155092E-01    0.669651E-02    0.160000E-02
    0.159176E-01    0.669651E-02    0.160000E-02
    0.163301E-01    0.669651E-02    0.160000E-02
</DataArray>
</Points>
<PointData>
<DataArray Name="Velocity" type="Float64" format="ascii" NumberOfComponents="3">
    0.993544E-01   -0.161766E-01    0.000000E+00
    0.101223E+00   -0.164406E-01    0.000000E+00
    0.103218E+00   -0.167913E-01    0.000000E+00
    0.105347E+00   -0.171834E-01    0.000000E+00
    0.107616E+00   -0.176024E-01    0.000000E+00
    0.110028E+00   -0.180296E-01    0.000000E+00
    0.112585E+00   -0.184404E-01    0.000000E+00
    0.115286E+00   -0.188052E-01    0.000000E+00
    0.118124E+00   -0.190885E-01    0.000000E+00
    0.121088E+00   -0.192485E-01    0.000000E+00
    0.124162E+00   -0.192369E-01    0.000000E+00
    0.966855E-01   -0.164032E-01    0.000000E+00
    0.984906E-01   -0.166956E-01    0.000000E+00
    0.100416E+00   -0.170784E-01    0.000000E+00
    0.102465E+00   -0.175024E-01    0.000000E+00
    0.104644E+00   -0.179530E-01    0.000000E+00
    0.106955E+00   -0.184100E-01    0.000000E+00
    0.109399E+00   -0.188482E-01    0.000000E+00
    0.111973E+00   -0.192371E-01    0.000000E+00
    0.114671E+00   -0.195401E-01    0.000000E+00
    0.117481E+00   -0.197138E-01    0.000000E+00
    0.120384E+00   -0.197084E-01    0.000000E+00
    0.940811E-01   -0.166126E-01    0.000000E+00
    0.958146E-01   -0.169280E-01    0.000000E+00
    0.976573E-01   -0.173372E-01    0.000000E+00
    0.996109E-01   -0.177869E-01    0.000000E+00
    0.101680E+00   -0.182610E-01    0.000000E+00
    0.103864E+00   -0.187393E-01    0.000000E+00
    0.106164E+00   -0.191959E-01    0.000000E+00
    0.108576E+00   -0.195994E-01    0.000000E+00
    0.111092E+00   -0.199119E-01    0.000000E+00
    0.113697E+00   -0.200890E-01    0.000000E+00
    0.116372E+00   -0.200791E-01    0.000000E+00
    0.918352E-01   -0.167988E-01    0.000000E+00
    0.934863E-01   -0.171334E-01    0.000000E+00
    0.952352E-01   -0.175631E-01    0.000000E+00
    0.970832E-01   -0.180321E-01    0.000000E+00
    0.990329E-01   -0.185235E-01    0.000000E+00
    0.101085E+00   -0.190164E-01    0.000000E+00
    0.103237E+00   -0.194845E-01    0.000000E+00
    0.105484E+00   -0.198953E-01    0.000000E+00
    0.107818E+00   -0.202099E-01    0.000000E+00
    0.110224E+00   -0.203825E-01    0.000000E+00
    0.112680E+00   -0.203601E-01    0.000000E+00
    0.899012E-01   -0.169573E-01    0.000000E+00
    0.914618E-01   -0.173072E-01    0.000000E+00
    0.931092E-01   -0.177531E-01    0.000000E+00
    0.948448E-01   -0.182361E-01    0.000000E+00
    0.966700E-01   -0.187394E-01    0.000000E+00
    0.985847E-01   -0.192415E-01    0.000000E+00
    0.100586E+00   -0.197154E-01    0.000000E+00
    0.102669E+00   -0.201279E-01    0.000000E+00
    0.104824E+00   -0.204389E-01    0.000000E+00
    0.107034E+00   -0.206013E-01    0.000000E+00
    0.109278E+00   -0.205605E-01    0.000000E+00
    0.882439E-01   -0.170857E-01    0.000000E+00
    0.897087E-01   -0.174472E-01    0.000000E+00
    0.912503E-01   -0.179048E-01    0.000000E+00
    0.928699E-01   -0.183975E-01    0.000000E+00
    0.945684E-01   -0.189081E-01    0.000000E+00
    0.963448E-01   -0.194149E-01    0.000000E+00
    0.981960E-01   -0.198902E-01    0.000000E+00
    0.100116E+00   -0.203000E-01    0.000000E+00
    0.102095E+00   -0.206032E-01    0.000000E+00
    0.104116E+00   -0.207512E-01    0.000000E+00
    0.106156E+00   -0.206879E-01    0.000000E+00
    0.867491E-01   -0.171872E-01    0.000000E+00
    0.881095E-01   -0.175579E-01    0.000000E+00
    0.895372E-01   -0.180239E-01    0.000000E+00
    0.910330E-01   -0.185227E-01    0.000000E+00
    0.925970E-01   -0.190370E-01    0.000000E+00
    0.942278E-01   -0.195447E-01    0.000000E+00
    0.959218E-01   -0.200175E-01    0.000000E+00
    0.976727E-01   -0.204208E-01    0.000000E+00
    0.994700E-01   -0.207122E-01    0.000000E+00
    0.101298E+00   -0.208419E-01    0.000000E+00
    0.103132E+00   -0.207520E-01    0.000000E+00
    0.854062E-01   -0.172570E-01    0.000000E+00
    0.866549E-01   -0.176339E-01    0.000000E+00
    0.879616E-01   -0.181049E-01    0.000000E+00
    0.893267E-01   -0.186063E-01    0.000000E+00
    0.907494E-01   -0.191208E-01    0.000000E+00
    0.922281E-01   -0.196257E-01    0.000000E+00
    0.937588E-01   -0.200925E-01    0.000000E+00
    0.953350E-01   -0.204857E-01    0.000000E+00
    0.969464E-01   -0.207620E-01    0.000000E+00
    0.985775E-01   -0.208701E-01    0.000000E+00
    0.100205E+00   -0.207505E-01    0.000000E+00
    0.842062E-01   -0.172902E-01    0.000000E+00
    0.853373E-01   -0.176705E-01    0.000000E+00
    0.865173E-01   -0.181431E-01    0.000000E+00
    0.877459E-01   -0.186436E-01    0.000000E+00
    0.890220E-01   -0.191545E-01    0.000000E+00
    0.903432E-01   -0.196530E-01    0.000000E+00
    0.917055E-01   -0.201103E-01    0.000000E+00
    0.931025E-01   -0.204901E-01    0.000000E+00
    0.945243E-01   -0.207484E-01    0.000000E+00
    0.959563E-01   -0.208325E-01    0.000000E+00
    0.973772E-01   -0.206814E-01    0.000000E+00
    0.831398E-01   -0.172820E-01    0.000000E+00
    0.841488E-01   -0.176629E-01    0.000000E+00
    0.851978E-01   -0.181337E-01    0.000000E+00
    0.862857E-01   -0.186297E-01    0.000000E+00
    0.874108E-01   -0.191335E-01    0.000000E+00
    0.885705E-01   -0.196221E-01    0.000000E+00
    0.897606E-01   -0.200665E-01    0.000000E+00
    0.909749E-01   -0.204299E-01    0.000000E+00
    0.922043E-01   -0.206677E-01    0.000000E+00
    0.934356E-01   -0.207263E-01    0.000000E+00
    0.946500E-01   -0.205431E-01    0.000000E+00
    0.821978E-01   -0.172286E-01    0.000000E+00
    0.830817E-01   -0.176071E-01    0.000000E+00
    0.839966E-01   -0.180727E-01    0.000000E+00
    0.849410E-01   -0.185607E-01    0.000000E+00
    0.859125E-01   -0.190537E-01    0.000000E+00
    0.869081E-01   -0.195288E-01    0.000000E+00
    0.879234E-01   -0.199568E-01    0.000000E+00
    0.889527E-01   -0.203010E-01    0.000000E+00
    0.899879E-01   -0.205163E-01    0.000000E+00
    0.910177E-01   -0.205485E-01    0.000000E+00
    0.920265E-01   -0.203341E-01    0.000000E+00
    0.997731E-01   -0.161427E-01    0.395383E-17
    0.101651E+00   -0.164406E-01    0.402679E-17
    0.103657E+00   -0.167913E-01    0.411268E-17
    0.105797E+00   -0.171834E-01    0.420872E-17
    0.108079E+00   -0.176024E-01    0.431135E-17
    0.110504E+00   -0.180296E-01    0.441598E-17
    0.113076E+00   -0.184404E-01    0.451659E-17
    0.115791E+00   -0.188052E-01    0.460594E-17
    0.118645E+00   -0.190885E-01    0.467534E-17
    0.121626E+00   -0.192485E-01    0.471453E-17
    0.124717E+00   -0.192369E-01    0.471167E-17
    0.966855E-01   -0.163654E-01    0.400835E-17
    0.984906E-01   -0.166956E-01    0.408924E-17
    0.100416E+00   -0.170784E-01    0.418299E-17
    0.102465E+00   -0.175024E-01    0.428685E-17
    0.104644E+00   -0.179530E-01    0.439722E-17
    0.106955E+00   -0.184100E-01    0.450915E-17
    0.109399E+00   -0.188482E-01    0.461648E-17
    0.111973E+00   -0.192371E-01    0.471174E-17
    0.114671E+00   -0.195401E-01    0.478594E-17
    0.117481E+00   -0.197138E-01    0.482849E-17
    0.120384E+00   -0.197084E-01    0.482717E-17
    0.940811E-01   -0.165714E-01    0.405883E-17
    0.958146E-01   -0.169280E-01    0.414617E-17
    0.976573E-01   -0.173372E-01    0.424640E-17
    0.996109E-01   -0.177869E-01    0.435652E-17
    0.101680E+00   -0.182610E-01    0.447265E-17
    0.103864E+00   -0.187393E-01    0.458980E-17
    0.106164E+00   -0.191959E-01    0.470165E-17
    0.108576E+00   -0.195994E-01    0.480048E-17
    0.111092E+00   -0.199119E-01    0.487702E-17
    0.113697E+00   -0.200890E-01    0.492038E-17
    0.116372E+00   -0.200791E-01    0.491795E-17
    0.918352E-01   -0.167547E-01    0.410371E-17
    0.934863E-01   -0.171334E-01    0.419647E-17
    0.952352E-01   -0.175631E-01    0.430173E-17
    0.970832E-01   -0.180321E-01    0.441658E-17
    0.990329E-01   -0.185235E-01    0.453694E-17
    0.101085E+00   -0.190164E-01    0.465768E-17
    0.103237E+00   -0.194845E-01    0.477232E-17
    0.105484E+00   -0.198953E-01    0.487294E-17
    0.107818E+00   -0.202099E-01    0.495000E-17
    0.110224E+00   -0.203825E-01    0.499227E-17
    0.112680E+00   -0.203601E-01    0.498678E-17
    0.899012E-01   -0.169110E-01    0.414199E-17
    0.914618E-01   -0.173072E-01    0.423904E-17
    0.931092E-01   -0.177531E-01    0.434825E-17
    0.948448E-01   -0.182361E-01    0.446655E-17
    0.966700E-01   -0.187394E-01    0.458982E-17
    0.985847E-01   -0.192415E-01    0.471280E-17
    0.100586E+00   -0.197154E-01    0.482888E-17
    0.102669E+00   -0.201279E-01    0.492991E-17
    0.104824E+00   -0.204389E-01    0.500610E-17
    0.107034E+00   -0.206013E-01    0.504586E-17
    0.109278E+00   -0.205605E-01    0.503587E-17
    0.882439E-01   -0.170375E-01    0.417300E-17
    0.897087E-01   -0.174472E-01    0.427333E-17
    0.912503E-01   -0.179048E-01    0.438541E-17
    0.928699E-01   -0.183975E-01    0.450608E-17
    0.945684E-01   -0.189081E-01    0.463116E-17
    0.963448E-01   -0.194149E-01    0.475528E-17
    0.981960E-01   -0.198902E-01    0.487169E-17
    0.100116E+00   -0.203000E-01    0.497207E-17
    0.102095E+00   -0.206032E-01    0.504632E-17
    0.104116E+00   -0.207512E-01    0.508257E-17
    0.106156E+00   -0.206879E-01    0.506707E-17
    0.867491E-01   -0.171376E-01    0.419751E-17
    0.881095E-01   -0.175579E-01    0.430043E-17
    0.895372E-01   -0.180239E-01    0.441457E-17
    0.910330E-01   -0.185227E-01    0.453674E-17
    0.925970E-01   -0.190370E-01    0.466272E-17
    0.942278E-01   -0.195447E-01    0.478706E-17
    0.959218E-01   -0.200175E-01    0.490288E-17
    0.976727E-01   -0.204208E-01    0.500165E-17
    0.994700E-01   -0.207122E-01    0.507303E-17
    0.101298E+00   -0.208419E-01    0.510479E-17
    0.103132E+00   -0.207520E-01    0.508278E-17
    0.854062E-01   -0.172064E-01    0.421435E-17
    0.866549E-01   -0.176339E-01    0.431906E-17
    0.879616E-01   -0.181049E-01    0.443443E-17
    0.893267E-01   -0.186063E-01    0.455724E-17
    0.907494E-01   -0.191208E-01    0.468324E-17
    0.922281E-01   -0.196257E-01    0.480690E-17
    0.937588E-01   -0.200925E-01    0.492124E-17
    0.953350E-01   -0.204857E-01    0.501754E-17
    0.969464E-01   -0.207620E-01    0.508521E-17
    0.985775E-01   -0.208701E-01    0.511169E-17
    0.100205E+00   -0.207505E-01    0.508242E-17
    0.842062E-01   -0.172388E-01    0.422230E-17
    0.853373E-01   -0.176705E-01    0.432801E-17
    0.865173E-01   -0.181431E-01    0.444377E-17
    0.877459E-01   -0.186436E-01    0.456636E-17
    0.890220E-01   -0.191545E-01    0.469149E-17
    0.903432E-01   -0.196530E-01    0.481360E-17
    0.917055E-01   -0.201103E-01    0.492560E-17
    0.931025E-01   -0.204901E-01    0.501863E-17
    0.945243E-01   -0.207484E-01    0.508189E-17
    0.959563E-01   -0.208325E-01    0.510249E-17
    0.973772E-01   -0.206814E-01    0.506549E-17
    0.831398E-01   -0.172304E-01    0.422024E-17
    0.841488E-01   -0.176629E-01    0.432616E-17
    0.851978E-01   -0.181337E-01    0.444147E-17
    0.862857E-01   -0.186297E-01    0.456297E-17
    0.874108E-01   -0.191335E-01    0.468635E-17
    0.885705E-01   -0.196221E-01    0.480604E-17
    0.897606E-01   -0.200665E-01    0.491486E-17
    0.909749E-01   -0.204299E-01    0.500388E-17
    0.922043E-01   -0.206677E-01    0.506213E-17
    0.934356E-01   -0.207263E-01    0.507647E-17
    0.946500E-01   -0.205431E-01    0.503162E-17
    0.821978E-01   -0.171771E-01    0.420718E-17
    0.830817E-01   -0.176071E-01    0.431250E-17
    0.839966E-01   -0.180727E-01    0.442653E-17
    0.849410E-01   -0.185607E-01    0.454606E-17
    0.859125E-01   -0.190537E-01    0.466680E-17
    0.869081E-01   -0.195288E-01    0.478317E-17
    0.879234E-01   -0.199568E-01    0.488801E-17
    0.889527E-01   -0.203010E-01    0.497232E-17
    0.899879E-01   -0.205163E-01    0.502505E-17
    0.910177E-01   -0.205485E-01    0.503293E-17
    0.920265E-01   -0.203341E-01    0.498043E-17
</DataArray>
</PointData>
<CellData>
<DataArray Name="DP" type="Float64" format="ascii" NumberOfComponents="1">
      0.000000E+0000
      0.000000E+0000
      0.000000E+0000
      0.000000E+0000
      0.000000E+0000
      0.000000E+0000
      0.000000E+0000
      0.000000E+0000
      0.000000E+0000
      0.000000E+0000
      0.000000E+0000
      0.000000E+0000
      0.000000E+0000
      0.000000E+0000
      0.000000E+0000
      0.000000E+0000
      0.000000E+0000
      0.000000E+0000
      0.000000E+0000
      0.000000E+0000
      0.000000E+0000
      0.000000E+0000
      0.000000E+0000
      0.000000E+0000
      0.000000E+0000
      0.000000E+0000
      0.000000E+0000
      0.000000E+0000
      0.000000E+0000
      0.000000E+0000
      0.000000E+0000
      0.000000E+0000
      0.000000E+0000
      0.000000E+0000
      0.000000E+0000
      0.000000E+0000
      0.000000E+0000
      0.000000E+0000
      0.000000E+0000
      0.000000E+0000
      0.000000E+0000
      0.000000E+0000
      0.000000E+0000
      0.000000E+0000
      0.000000E+0000
      0.000000E+0000
      0.000000E+0000
      0.000000E+0000
      0.000000E+0000
      0.000000E+0000
      0.000000E+0000
      0.000000E+0000
      0.000000E+0000
      0.000000E+0000
      0.000000E+0000
      0.000000E+0000
      0.000000E+0000
      0.000000E+0000
      0.000000E+0000
      0.000000E+0000
      0.000000E+0000
      0.000000E+0000
      0.000000E+0000
      0.000000E+0000
      0.000000E+0000
      0.000000E+0000
      0.000000E+0000
      0.000000E+0000
      0.000000E+0000
      0.000000E+0000
      0.000000E+0000
      0.000000E+0000
      0.000000E+0000
      0.000000E+0000
      0.000000E+0000
      0.000000E+0000
      0.000000E+0000
      0.000000E+0000
      0.000000E+0000
      0.000000E+0000
      0.000000E+0000
      0.000000E+0000
      0.000000E+0000
      0.000000E+0000
      0.000000E+0000
      0.000000E+0000
      0.000000E+0000
      0.000000E+0000
      0.000000E+0000
      0.000000E+0000
      0.000000E+0000
      0.000000E+0000
      0.000000E+0000
      0.000000E+0000
      0.000000E+0000
      0.000000E+0000
      0.000000E+0000
      0.000000E+0000
      0.000000E+0000
      0.000000E+0000
</DataArray>
<DataArray Name="P" type="Float64" format="ascii" NumberOfComponents="1">
      0.487935E+0000
      0.483512E+0000
      0.479032E+0000
      0.474491E+0000
      0.469888E+0000
      0.465224E+0000
      0.460497E+0000
      0.455705E+0000
      0.450848E+0000
      0.445929E+0000
      0.487909E+0000
      0.483487E+0000
      0.479008E+0000
      0.474470E+0000
      0.469870E+0000
      0.465209E+0000
      0.460484E+0000
      0.455696E+0000
      0.450844E+0000
      0.445928E+0000
      0.487884E+0000
      0.483464E+0000
      0.478987E+0000
      0.474450E+0000
      0.469853E+0000
      0.465195E+0000
      0.460474E+0000
      0.455690E+0000
      0.450842E+0000
      0.445931E+0000
      0.487861E+0000
      0.483442E+0000
      0.478967E+0000
      0.474433E+0000
      0.469839E+0000
      0.465183E+0000
      0.460466E+0000
      0.455686E+0000
      0.450843E+0000
      0.445936E+0000
      0.487840E+0000
      0.483423E+0000
      0.478949E+0000
      0.474417E+0000
      0.469826E+0000
      0.465173E+0000
      0.460460E+0000
      0.455685E+0000
      0.450846E+0000
      0.445945E+0000
      0.487821E+0000
      0.483405E+0000
      0.478933E+0000
      0.474404E+0000
      0.469815E+0000
      0.465166E+0000
      0.460457E+0000
      0.455686E+0000
      0.450852E+0000
      0.445956E+0000
      0.487802E+0000
      0.483388E+0000
      0.478918E+0000
      0.474391E+0000
      0.469806E+0000
      0.465161E+0000
      0.460455E+0000
      0.455689E+0000
      0.450861E+0000
      0.445971E+0000
      0.487785E+0000
      0.483372E+0000
      0.478905E+0000
      0.474381E+0000
      0.469798E+0000
      0.465157E+0000
      0.460457E+0000
      0.455695E+0000
      0.450873E+0000
      0.445990E+0000
      0.487770E+0000
      0.483359E+0000
      0.478893E+0000
      0.474372E+0000
      0.469793E+0000
      0.465156E+0000
      0.460460E+0000
      0.455704E+0000
      0.450888E+0000
      0.446013E+0000
      0.487755E+0000
      0.483346E+0000
      0.478883E+0000
      0.474366E+0000
      0.469791E+0000
      0.465158E+0000
      0.460467E+0000
      0.455717E+0000
      0.450908E+0000
      0.446040E+0000
</DataArray>
<DataArray Name="RHO" type="Float64" format="ascii" NumberOfComponents="1">
      0.114241E+0001
      0.114259E+0001
      0.114242E+0001
      0.114203E+0001
      0.114138E+0001
      0.114046E+0001
      0.113923E+0001
      0.113762E+0001
      0.113558E+0001
      0.113304E+0001
      0.114686E+0001
      0.114678E+0001
      0.114651E+0001
      0.114600E+0001
      0.114527E+0001
      0.114427E+0001
      0.114296E+0001
      0.114129E+0001
      0.113918E+0001
      0.113658E+0001
      0.115045E+0001
      0.115027E+0001
      0.114990E+0001
      0.114933E+0001
      0.114853E+0001
      0.114748E+0001
      0.114613E+0001
      0.114441E+0001
      0.114227E+0001
      0.113964E+0001
      0.115342E+0001
      0.115316E+0001
      0.115273E+0001
      0.115212E+0001
      0.115128E+0001
      0.115020E+0001
      0.114882E+0001
      0.114709E+0001
      0.114495E+0001
      0.114232E+0001
      0.115589E+0001
      0.115557E+0001
      0.115511E+0001
      0.115446E+0001
      0.115361E+0001
      0.115252E+0001
      0.115114E+0001
      0.114941E+0001
      0.114728E+0001
      0.114468E+0001
      0.115799E+0001
      0.115765E+0001
      0.115716E+0001
      0.115650E+0001
      0.115564E+0001
      0.115455E+0001
      0.115318E+0001
      0.115148E+0001
      0.114939E+0001
      0.114683E+0001
      0.115985E+0001
      0.115949E+0001