<?xml version="1.0"?>
<VTKFile type="StructuredGrid" version="0.1" byte_order="LittleEndian">
<StructuredGrid WholeExtent="         170         180          20          30           0           1">
<Piece Extent="         170         180          20          30           0           1">
<Points>
<DataArray NumberOfComponents="3" type="Float64" format="ascii">
    0.112170E+00    0.480136E-02    0.000000E+00
    0.113545E+00    0.480136E-02    0.000000E+00
    0.114934E+00    0.480136E-02    0.000000E+00
    0.116336E+00    0.480136E-02    0.000000E+00
    0.117753E+00    0.480136E-02    0.000000E+00
    0.119184E+00    0.480136E-02    0.000000E+00
    0.120629E+00    0.480136E-02    0.000000E+00
    0.122089E+00    0.480136E-02    0.000000E+00
    0.123563E+00    0.480136E-02    0.000000E+00
    0.125052E+00    0.480136E-02    0.000000E+00
    0.126556E+00    0.480136E-02    0.000000E+00
    0.112170E+00    0.499423E-02    0.000000E+00
    0.113545E+00    0.499423E-02    0.000000E+00
    0.114934E+00    0.499423E-02    0.000000E+00
    0.116336E+00    0.499423E-02    0.000000E+00
    0.117753E+00    0.499423E-02    0.000000E+00
    0.119184E+00    0.499423E-02    0.000000E+00
    0.120629E+00    0.499423E-02    0.000000E+00
    0.122089E+00    0.499423E-02    0.000000E+00
    0.123563E+00    0.499423E-02    0.000000E+00
    0.125052E+00    0.499423E-02    0.000000E+00
    0.126556E+00    0.499423E-02    0.000000E+00
    0.112170E+00    0.518324E-02    0.000000E+00
    0.113545E+00    0.518324E-02    0.000000E+00
    0.114934E+00    0.518324E-02    0.000000E+00
    0.116336E+00    0.518324E-02    0.000000E+00
    0.117753E+00    0.518324E-02    0.000000E+00
    0.119184E+00    0.518324E-02    0.000000E+00
    0.120629E+00    0.518324E-02    0.000000E+00
    0.122089E+00    0.518324E-02    0.000000E+00
    0.123563E+00    0.518324E-02    0.000000E+00
    0.125052E+00    0.518324E-02    0.000000E+00
    0.126556E+00    0.518324E-02    0.000000E+00
    0.112170E+00    0.536847E-02    0.000000E+00
    0.113545E+00    0.536847E-02    0.000000E+00
    0.114934E+00    0.536847E-02    0.000000E+00
    0.116336E+00    0.536847E-02    0.000000E+00
    0.117753E+00    0.536847E-02    0.000000E+00
    0.119184E+00    0.536847E-02    0.000000E+00
    0.120629E+00    0.536847E-02    0.000000E+00
    0.122089E+00    0.536847E-02    0.000000E+00
    0.123563E+00    0.536847E-02    0.000000E+00
    0.125052E+00    0.536847E-02    0.000000E+00
    0.126556E+00    0.536847E-02    0.000000E+00
    0.112170E+00    0.555000E-02    0.000000E+00
    0.113545E+00    0.555000E-02    0.000000E+00
    0.114934E+00    0.555000E-02    0.000000E+00
    0.116336E+00    0.555000E-02    0.000000E+00
    0.117753E+00    0.555000E-02    0.000000E+00
    0.119184E+00    0.555000E-02    0.000000E+00
    0.120629E+00    0.555000E-02    0.000000E+00
    0.122089E+00    0.555000E-02    0.000000E+00
    0.123563E+00    0.555000E-02    0.000000E+00
    0.125052E+00    0.555000E-02    0.000000E+00
    0.126556E+00    0.555000E-02    0.000000E+00
    0.112170E+00    0.572725E-02    0.000000E+00
    0.113545E+00    0.572725E-02    0.000000E+00
    0.114934E+00    0.572725E-02    0.000000E+00
    0.116336E+00    0.572725E-02    0.000000E+00
    0.117753E+00    0.572725E-02    0.000000E+00
    0.119184E+00    0.572725E-02    0.000000E+00
    0.120629E+00    0.572725E-02    0.000000E+00
    0.122089E+00    0.572725E-02    0.000000E+00
    0.123563E+00    0.572725E-02    0.000000E+00
    0.125052E+00    0.572725E-02    0.000000E+00
    0.126556E+00    0.572725E-02    0.000000E+00
    0.112170E+00    0.590981E-02    0.000000E+00
    0.113545E+00    0.590981E-02    0.000000E+00
    0.114934E+00    0.590981E-02    0.000000E+00
    0.116336E+00    0.590981E-02    0.000000E+00
    0.117753E+00    0.590981E-02    0.000000E+00
    0.119184E+00    0.590981E-02    0.000000E+00
    0.120629E+00    0.590981E-02    0.000000E+00
    0.122089E+00    0.590981E-02    0.000000E+00
    0.123563E+00    0.590981E-02    0.000000E+00
    0.125052E+00    0.590981E-02    0.000000E+00
    0.126556E+00    0.590981E-02    0.000000E+00
    0.112170E+00    0.609785E-02    0.000000E+00
    0.113545E+00    0.609785E-02    0.000000E+00
    0.114934E+00    0.609785E-02    0.000000E+00
    0.116336E+00    0.609785E-02    0.000000E+00
    0.117753E+00    0.609785E-02    0.000000E+00
    0.119184E+00    0.609785E-02    0.000000E+00
    0.120629E+00    0.609785E-02    0.000000E+00
    0.122089E+00    0.609785E-02    0.000000E+00
    0.123563E+00    0.609785E-02    0.000000E+00
    0.125052E+00    0.609785E-02    0.000000E+00
    0.126556E+00    0.609785E-02    0.000000E+00
    0.112170E+00    0.629154E-02    0.000000E+00
    0.113545E+00    0.629154E-02    0.000000E+00
    0.114934E+00    0.629154E-02    0.000000E+00
    0.116336E+00    0.629154E-02    0.000000E+00
    0.117753E+00    0.629154E-02    0.000000E+00
    0.119184E+00    0.629154E-02    0.000000E+00
    0.120629E+00    0.629154E-02    0.000000E+00
    0.122089E+00    0.629154E-02    0.000000E+00
    0.123563E+00    0.629154E-02    0.000000E+00
    0.125052E+00    0.629154E-02    0.000000E+00
    0.126556E+00    0.629154E-02    0.000000E+00
    0.112170E+00    0.649103E-02    0.000000E+00
    0.113545E+00    0.649103E-02    0.000000E+00
    0.114934E+00    0.649103E-02    0.000000E+00
    0.116336E+00    0.649103E-02    0.000000E+00
    0.117753E+00    0.649103E-02    0.000000E+00
    0.119184E+00    0.649103E-02    0.000000E+00
    0.120629E+00    0.649103E-02    0.000000E+00
    0.122089E+00    0.649103E-02    0.000000E+00
    0.123563E+00    0.649103E-02    0.000000E+00
    0.125052E+00    0.649103E-02    0.000000E+00
    0.126556E+00    0.649103E-02    0.000000E+00
    0.112170E+00    0.669651E-02    0.000000E+00
    0.113545E+00    0.669651E-02    0.000000E+00
    0.114934E+00    0.669651E-02    0.000000E+00
    0.116336E+00    0.669651E-02    0.000000E+00
    0.117753E+00    0.669651E-02    0.000000E+00
    0.119184E+00    0.669651E-02    0.000000E+00
    0.120629E+00    0.669651E-02    0.000000E+00
    0.122089E+00    0.669651E-02    0.000000E+00
    0.123563E+00    0.669651E-02    0.000000E+00
    0.125052E+00    0.669651E-02    0.000000E+00
    0.126556E+00    0.669651E-02    0.000000E+00
    0.112170E+00    0.480136E-02    0.160000E-02
    0.113545E+00    0.480136E-02    0.160000E-02
    0.114934E+00    0.480136E-02    0.160000E-02
    0.116336E+00    0.480136E-02    0.160000E-02
    0.117753E+00    0.480136E-02    0.160000E-02
    0.119184E+00    0.480136E-02    0.160000E-02
    0.120629E+00    0.480136E-02    0.160000E-02
    0.122089E+00    0.480136E-02    0.160000E-02
    0.123563E+00    0.480136E-02    0.160000E-02
    0.125052E+00    0.480136E-02    0.160000E-02
    0.126556E+00    0.480136E-02    0.160000E-02
    0.112170E+00    0.499423E-02    0.160000E-02
    0.113545E+00    0.499423E-02    0.160000E-02
    0.114934E+00    0.499423E-02    0.160000E-02
    0.116336E+00    0.499423E-02    0.160000E-02
    0.117753E+00    0.499423E-02    0.160000E-02
    0.119184E+00    0.499423E-02    0.160000E-02
    0.120629E+00    0.499423E-02    0.160000E-02
    0.122089E+00    0.499423E-02    0.160000E-02
    0.123563E+00    0.499423E-02    0.160000E-02
    0.125052E+00    0.499423E-02    0.160000E-02
    0.126556E+00    0.499423E-02    0.160000E-02
    0.112170E+00    0.518324E-02    0.160000E-02
    0.113545E+00    0.518324E-02    0.160000E-02
    0.114934E+00    0.518324E-02    0.160000E-02
    0.116336E+00    0.518324E-02    0.160000E-02
    0.117753E+00    0.518324E-02    0.160000E-02
    0.119184E+00    0.518324E-02    0.160000E-02
    0.120629E+00    0.518324E-02    0.160000E-02
    0.122089E+00    0.518324E-02    0.160000E-02
    0.123563E+00    0.518324E-02    0.160000E-02
    0.125052E+00    0.518324E-02    0.160000E-02
    0.126556E+00    0.518324E-02    0.160000E-02
    0.112170E+00    0.536847E-02    0.160000E-02
    0.113545E+00    0.536847E-02    0.160000E-02
    0.114934E+00    0.536847E-02    0.160000E-02
    0.116336E+00    0.536847E-02    0.160000E-02
    0.117753E+00    0.536847E-02    0.160000E-02
    0.119184E+00    0.536847E-02    0.160000E-02
    0.120629E+00    0.536847E-02    0.160000E-02
    0.122089E+00    0.536847E-02    0.160000E-02
    0.123563E+00    0.536847E-02    0.160000E-02
    0.125052E+00    0.536847E-02    0.160000E-02
    0.126556E+00    0.536847E-02    0.160000E-02
    0.112170E+00    0.555000E-02    0.160000E-02
    0.113545E+00    0.555000E-02    0.160000E-02
    0.114934E+00    0.555000E-02    0.160000E-02
    0.116336E+00    0.555000E-02    0.160000E-02
    0.117753E+00    0.555000E-02    0.160000E-02
    0.119184E+00    0.555000E-02    0.160000E-02
    0.120629E+00    0.555000E-02    0.160000E-02
    0.122089E+00    0.555000E-02    0.160000E-02
    0.123563E+00    0.555000E-02    0.160000E-02
    0.125052E+00    0.555000E-02    0.160000E-02
    0.126556E+00    0.555000E-02    0.160000E-02
    0.112170E+00    0.572725E-02    0.160000E-02
    0.113545E+00    0.572725E-02    0.160000E-02
    0.114934E+00    0.572725E-02    0.160000E-02
    0.116336E+00    0.572725E-02    0.160000E-02
    0.117753E+00    0.572725E-02    0.160000E-02
    0.119184E+00    0.572725E-02    0.160000E-02
    0.120629E+00    0.572725E-02    0.160000E-02
    0.122089E+00    0.572725E-02    0.160000E-02
    0.123563E+00    0.572725E-02    0.160000E-02
    0.125052E+00    0.572725E-02    0.160000E-02
    0.126556E+00    0.572725E-02    0.160000E-02
    0.112170E+00    0.590981E-02    0.160000E-02
    0.113545E+00    0.590981E-02    0.160000E-02
    0.114934E+00    0.590981E-02    0.160000E-02
    0.116336E+00    0.590981E-02    0.160000E-02
    0.117753E+00    0.590981E-02    0.160000E-02
    0.119184E+00    0.590981E-02    0.160000E-02
    0.120629E+00    0.590981E-02    0.160000E-02
    0.122089E+00    0.590981E-02    0.160000E-02
    0.123563E+00    0.590981E-02    0.160000E-02
    0.125052E+00    0.590981E-02    0.160000E-02
    0.126556E+00    0.590981E-02    0.160000E-02
    0.112170E+00    0.609785E-02    0.160000E-02
    0.113545E+00    0.609785E-02    0.160000E-02
    0.114934E+00    0.609785E-02    0.160000E-02
    0.116336E+00    0.609785E-02    0.160000E-02
    0.117753E+00    0.609785E-02    0.160000E-02
    0.119184E+00    0.609785E-02    0.160000E-02
    0.120629E+00    0.609785E-02    0.160000E-02
    0.122089E+00    0.609785E-02    0.160000E-02
    0.123563E+00    0.609785E-02    0.160000E-02
    0.125052E+00    0.609785E-02    0.160000E-02
    0.126556E+00    0.609785E-02    0.160000E-02
    0.112170E+00    0.629154E-02    0.160000E-02
    0.113545E+00    0.629154E-02    0.160000E-02
    0.114934E+00    0.629154E-02    0.160000E-02
    0.116336E+00    0.629154E-02    0.160000E-02
    0.117753E+00    0.629154E-02    0.160000E-02
    0.119184E+00    0.629154E-02    0.160000E-02
    0.120629E+00    0.629154E-02    0.160000E-02
    0.122089E+00    0.629154E-02    0.160000E-02
    0.123563E+00    0.629154E-02    0.160000E-02
    0.125052E+00    0.629154E-02    0.160000E-02
    0.126556E+00    0.629154E-02    0.160000E-02
    0.112170E+00    0.649103E-02    0.160000E-02
    0.113545E+00    0.649103E-02    0.160000E-02
    0.114934E+00    0.649103E-02    0.160000E-02
    0.116336E+00    0.649103E-02    0.160000E-02
    0.117753E+00    0.649103E-02    0.160000E-02
    0.119184E+00    0.649103E-02    0.160000E-02
    0.120629E+00    0.649103E-02    0.160000E-02
    0.122089E+00    0.649103E-02    0.160000E-02
    0.123563E+00    0.649103E-02    0.160000E-02
    0.125052E+00    0.649103E-02    0.160000E-02
    0.126556E+00    0.649103E-02    0.160000E-02
    0.112170E+00    0.669651E-02    0.160000E-02
    0.113545E+00    0.669651E-02    0.160000E-02
    0.114934E+00    0.669651E-02    0.160000E-02
    0.116336E+00    0.669651E-02    0.160000E-02
    0.117753E+00    0.669651E-02    0.160000E-02
    0.119184E+00    0.669651E-02    0.160000E-02
    0.120629E+00    0.669651E-02    0.160000E-02
    0.122089E+00    0.669651E-02    0.160000E-02
    0.123563E+00    0.669651E-02    0.160000E-02
    0.125052E+00    0.669651E-02    0.160000E-02
    0.126556E+00    0.669651E-02    0.160000E-02
</DataArray>
</Points>
<PointData>
<DataArray Name="Velocity" type="Float64" format="ascii" NumberOfComponents="3">
    0.884003E-01    0.891439E-07    0.000000E+00
    0.884002E-01    0.826044E-07    0.000000E+00
    0.884002E-01    0.600544E-07    0.000000E+00
    0.884002E-01    0.651986E-07    0.000000E+00
    0.884001E-01    0.625578E-07    0.000000E+00
    0.884001E-01    0.548992E-07    0.000000E+00
    0.884001E-01    0.459651E-07    0.000000E+00
    0.884000E-01    0.385306E-07    0.000000E+00
    0.884000E-01    0.342443E-07    0.000000E+00
    0.884000E-01    0.308428E-07    0.000000E+00
    0.883999E-01    0.299308E-07    0.000000E+00
    0.884003E-01    0.822891E-07    0.000000E+00
    0.884002E-01    0.753566E-07    0.000000E+00
    0.884002E-01    0.694876E-07    0.000000E+00
    0.884002E-01    0.642470E-07    0.000000E+00
    0.884001E-01    0.604742E-07    0.000000E+00
    0.884001E-01    0.560311E-07    0.000000E+00
    0.884001E-01    0.498484E-07    0.000000E+00
    0.884000E-01    0.427968E-07    0.000000E+00
    0.884000E-01    0.358370E-07    0.000000E+00
    0.884000E-01    0.313877E-07    0.000000E+00
    0.883999E-01    0.296492E-07    0.000000E+00
    0.884003E-01    0.859267E-07    0.000000E+00
    0.884002E-01    0.789787E-07    0.000000E+00
    0.884002E-01    0.727327E-07    0.000000E+00
    0.884002E-01    0.671718E-07    0.000000E+00
    0.884001E-01    0.628258E-07    0.000000E+00
    0.884001E-01    0.580412E-07    0.000000E+00
    0.884001E-01    0.519465E-07    0.000000E+00
    0.884000E-01    0.450846E-07    0.000000E+00
    0.884000E-01    0.384406E-07    0.000000E+00
    0.884000E-01    0.338522E-07    0.000000E+00
    0.883999E-01    0.316242E-07    0.000000E+00
    0.884003E-01    0.894761E-07    0.000000E+00
    0.884002E-01    0.825250E-07    0.000000E+00
    0.884002E-01    0.759120E-07    0.000000E+00
    0.884002E-01    0.699616E-07    0.000000E+00
    0.884001E-01    0.651288E-07    0.000000E+00
    0.884001E-01    0.600484E-07    0.000000E+00
    0.884001E-01    0.539948E-07    0.000000E+00
    0.884000E-01    0.473539E-07    0.000000E+00
    0.884000E-01    0.409463E-07    0.000000E+00
    0.884000E-01    0.362938E-07    0.000000E+00
    0.883999E-01    0.335310E-07    0.000000E+00
    0.884003E-01    0.929359E-07    0.000000E+00
    0.884002E-01    0.859730E-07    0.000000E+00
    0.884002E-01    0.790271E-07    0.000000E+00
    0.884002E-01    0.726889E-07    0.000000E+00
    0.884001E-01    0.674046E-07    0.000000E+00
    0.884001E-01    0.620574E-07    0.000000E+00
    0.884001E-01    0.560064E-07    0.000000E+00
    0.884000E-01    0.495550E-07    0.000000E+00
    0.884000E-01    0.433442E-07    0.000000E+00
    0.884000E-01    0.386193E-07    0.000000E+00
    0.883999E-01    0.353613E-07    0.000000E+00
    0.884003E-01    0.963088E-07    0.000000E+00
    0.884002E-01    0.893262E-07    0.000000E+00
    0.884002E-01    0.820691E-07    0.000000E+00
    0.884002E-01    0.753471E-07    0.000000E+00
    0.884001E-01    0.696370E-07    0.000000E+00
    0.884001E-01    0.640428E-07    0.000000E+00
    0.884001E-01    0.579758E-07    0.000000E+00
    0.884000E-01    0.516810E-07    0.000000E+00
    0.884000E-01    0.456459E-07    0.000000E+00
    0.884000E-01    0.408451E-07    0.000000E+00
    0.883999E-01    0.371205E-07    0.000000E+00
    0.884003E-01    0.997943E-07    0.000000E+00
    0.884002E-01    0.927819E-07    0.000000E+00
    0.884002E-01    0.852029E-07    0.000000E+00
    0.884002E-01    0.780759E-07    0.000000E+00
    0.884001E-01    0.719387E-07    0.000000E+00
    0.884001E-01    0.661032E-07    0.000000E+00
    0.884001E-01    0.600156E-07    0.000000E+00
    0.884000E-01    0.538568E-07    0.000000E+00
    0.884000E-01    0.479918E-07    0.000000E+00
    0.884000E-01    0.431102E-07    0.000000E+00
    0.883999E-01    0.389142E-07    0.000000E+00
    0.884003E-01    0.103395E-06    0.000000E+00
    0.884002E-01    0.963418E-07    0.000000E+00
    0.884002E-01    0.884323E-07    0.000000E+00
    0.884002E-01    0.808788E-07    0.000000E+00
    0.884001E-01    0.743045E-07    0.000000E+00
    0.884001E-01    0.682335E-07    0.000000E+00
    0.884001E-01    0.621266E-07    0.000000E+00
    0.884000E-01    0.560829E-07    0.000000E+00
    0.884000E-01    0.503838E-07    0.000000E+00
    0.884000E-01    0.454208E-07    0.000000E+00
    0.883999E-01    0.407426E-07    0.000000E+00
    0.884003E-01    0.107120E-06    0.000000E+00
    0.884002E-01    0.100011E-06    0.000000E+00
    0.884002E-01    0.917584E-07    0.000000E+00
    0.884002E-01    0.837625E-07    0.000000E+00
    0.884001E-01    0.767276E-07    0.000000E+00
    0.884001E-01    0.704291E-07    0.000000E+00
    0.884001E-01    0.643171E-07    0.000000E+00
    0.884000E-01    0.583661E-07    0.000000E+00
    0.884000E-01    0.528276E-07    0.000000E+00
    0.884000E-01    0.477783E-07    0.000000E+00
    0.883999E-01    0.426038E-07    0.000000E+00
    0.884003E-01    0.110977E-06    0.000000E+00
    0.884002E-01    0.103814E-06    0.000000E+00
    0.884002E-01    0.951595E-07    0.000000E+00
    0.884002E-01    0.867225E-07    0.000000E+00
    0.884001E-01    0.792465E-07    0.000000E+00
    0.884001E-01    0.727097E-07    0.000000E+00
    0.884001E-01    0.666131E-07    0.000000E+00
    0.884000E-01    0.607186E-07    0.000000E+00
    0.884000E-01    0.552952E-07    0.000000E+00
    0.884000E-01    0.501103E-07    0.000000E+00
    0.883999E-01    0.445129E-07    0.000000E+00
    0.884003E-01    0.106200E-06    0.000000E+00
    0.884002E-01    0.958054E-07    0.000000E+00
    0.884002E-01    0.984219E-07    0.000000E+00
    0.884002E-01    0.875227E-07    0.000000E+00
    0.884001E-01    0.792468E-07    0.000000E+00
    0.884001E-01    0.727483E-07    0.000000E+00
    0.884001E-01    0.673130E-07    0.000000E+00
    0.884000E-01    0.615282E-07    0.000000E+00
    0.884000E-01    0.562263E-07    0.000000E+00
    0.884000E-01    0.489238E-07    0.000000E+00
    0.883999E-01    0.439548E-07    0.000000E+00
    0.884003E-01    0.821505E-07   -0.201211E-22
    0.884002E-01    0.826044E-07   -0.202323E-22
    0.884002E-01    0.600544E-07   -0.147091E-22
    0.884002E-01    0.651986E-07   -0.159690E-22
    0.884001E-01    0.625578E-07   -0.153222E-22
    0.884001E-01    0.548992E-07   -0.134464E-22
    0.884001E-01    0.459651E-07   -0.112582E-22
    0.884000E-01    0.385306E-07   -0.943727E-23
    0.884000E-01    0.342443E-07   -0.838743E-23
    0.884000E-01    0.308428E-07   -0.755432E-23
    0.883999E-01    0.299308E-07   -0.733093E-23
    0.884003E-01    0.836876E-07   -0.204976E-22
    0.884002E-01    0.753566E-07   -0.184571E-22
    0.884002E-01    0.694876E-07   -0.170196E-22
    0.884002E-01    0.642470E-07   -0.157360E-22
    0.884001E-01    0.604742E-07   -0.148119E-22
    0.884001E-01    0.560311E-07   -0.137237E-22
    0.884001E-01    0.498484E-07   -0.122093E-22
    0.884000E-01    0.427968E-07   -0.104822E-22
    0.884000E-01    0.358370E-07   -0.877753E-23
    0.884000E-01    0.313877E-07   -0.768778E-23
    0.883999E-01    0.296492E-07   -0.726195E-23
    0.884003E-01    0.872360E-07   -0.213667E-22
    0.884002E-01    0.789787E-07   -0.193442E-22
    0.884002E-01    0.727327E-07   -0.178144E-22
    0.884002E-01    0.671718E-07   -0.164523E-22
    0.884001E-01    0.628258E-07   -0.153879E-22
    0.884001E-01    0.580412E-07   -0.142160E-22
    0.884001E-01    0.519465E-07   -0.127232E-22
    0.884000E-01    0.450846E-07   -0.110425E-22
    0.884000E-01    0.384406E-07   -0.941522E-23
    0.884000E-01    0.338522E-07   -0.829140E-23
    0.883999E-01    0.316242E-07   -0.774568E-23
    0.884003E-01    0.907196E-07   -0.222199E-22
    0.884002E-01    0.825250E-07   -0.202128E-22
    0.884002E-01    0.759120E-07   -0.185931E-22
    0.884002E-01    0.699616E-07   -0.171356E-22
    0.884001E-01    0.651288E-07   -0.159519E-22
    0.884001E-01    0.600484E-07   -0.147076E-22
    0.884001E-01    0.539948E-07   -0.132249E-22
    0.884000E-01    0.473539E-07   -0.115984E-22
    0.884000E-01    0.409463E-07   -0.100289E-22
    0.884000E-01    0.362938E-07   -0.888942E-23
    0.883999E-01    0.335310E-07   -0.821273E-23
    0.884003E-01    0.941292E-07   -0.230550E-22
    0.884002E-01    0.859730E-07   -0.210573E-22
    0.884002E-01    0.790271E-07   -0.193561E-22
    0.884002E-01    0.726889E-07   -0.178037E-22
    0.884001E-01    0.674046E-07   -0.165094E-22
    0.884001E-01    0.620574E-07   -0.151997E-22
    0.884001E-01    0.560064E-07   -0.137176E-22
    0.884000E-01    0.495550E-07   -0.121375E-22
    0.884000E-01    0.433442E-07   -0.106163E-22
    0.884000E-01    0.386193E-07   -0.945901E-23
    0.883999E-01    0.353613E-07   -0.866101E-23
    0.884003E-01    0.974620E-07   -0.238713E-22
    0.884002E-01    0.893262E-07   -0.218786E-22
    0.884002E-01    0.820691E-07   -0.201011E-22
    0.884002E-01    0.753471E-07   -0.184547E-22
    0.884001E-01    0.696370E-07   -0.170562E-22
    0.884001E-01    0.640428E-07   -0.156860E-22
    0.884001E-01    0.579758E-07   -0.142000E-22
    0.884000E-01    0.516810E-07   -0.126582E-22
    0.884000E-01    0.456459E-07   -0.111800E-22
    0.884000E-01    0.408451E-07   -0.100042E-22
    0.883999E-01    0.371205E-07   -0.909191E-23
    0.884003E-01    0.100911E-06   -0.247162E-22
    0.884002E-01    0.927819E-07   -0.227250E-22
    0.884002E-01    0.852029E-07   -0.208687E-22
    0.884002E-01    0.780759E-07   -0.191231E-22
    0.884001E-01    0.719387E-07   -0.176199E-22
    0.884001E-01    0.661032E-07   -0.161906E-22
    0.884001E-01    0.600156E-07   -0.146996E-22
    0.884000E-01    0.538568E-07   -0.131911E-22
    0.884000E-01    0.479918E-07   -0.117546E-22
    0.884000E-01    0.431102E-07   -0.105590E-22
    0.883999E-01    0.389142E-07   -0.953122E-23
    0.884003E-01    0.104481E-06   -0.255904E-22
    0.884002E-01    0.963418E-07   -0.235969E-22
    0.884002E-01    0.884323E-07   -0.216597E-22
    0.884002E-01    0.808788E-07   -0.198096E-22
    0.884001E-01    0.743045E-07   -0.181994E-22
    0.884001E-01    0.682335E-07   -0.167124E-22
    0.884001E-01    0.621266E-07   -0.152166E-22
    0.884000E-01    0.560829E-07   -0.137364E-22
    0.884000E-01    0.503838E-07   -0.123405E-22
    0.884000E-01    0.454208E-07   -0.111249E-22
    0.883999E-01    0.407426E-07   -0.997906E-23
    0.884003E-01    0.108176E-06   -0.264954E-22
    0.884002E-01    0.100011E-06   -0.244957E-22
    0.884002E-01    0.917584E-07   -0.224743E-22
    0.884002E-01    0.837625E-07   -0.205159E-22
    0.884001E-01    0.767276E-07   -0.187928E-22
    0.884001E-01    0.704291E-07   -0.172502E-22
    0.884001E-01    0.643171E-07   -0.157532E-22
    0.884000E-01    0.583661E-07   -0.142956E-22
    0.884000E-01    0.528276E-07   -0.129390E-22
    0.884000E-01    0.477783E-07   -0.117023E-22
    0.883999E-01    0.426038E-07   -0.104349E-22
    0.884003E-01    0.111993E-06   -0.274305E-22
    0.884002E-01    0.103814E-06   -0.254271E-22
    0.884002E-01    0.951595E-07   -0.233073E-22
    0.884002E-01    0.867225E-07   -0.212409E-22
    0.884001E-01    0.792465E-07   -0.194098E-22
    0.884001E-01    0.727097E-07   -0.178087E-22
    0.884001E-01    0.666131E-07   -0.163155E-22
    0.884000E-01    0.607186E-07   -0.148718E-22
    0.884000E-01    0.552952E-07   -0.135434E-22
    0.884000E-01    0.501103E-07   -0.122735E-22
    0.883999E-01    0.445129E-07   -0.109025E-22
    0.884003E-01    0.112585E-06   -0.275753E-22
    0.884002E-01    0.958054E-07   -0.234655E-22
    0.884002E-01    0.984219E-07   -0.241064E-22
    0.884002E-01    0.875227E-07   -0.214369E-22
    0.884001E-01    0.792468E-07   -0.194099E-22
    0.884001E-01    0.727483E-07   -0.178182E-22
    0.884001E-01    0.673130E-07   -0.164869E-22
    0.884000E-01    0.615282E-07   -0.150701E-22
    0.884000E-01    0.562263E-07   -0.137715E-22
    0.884000E-01    0.489238E-07   -0.119829E-22
    0.883999E-01    0.439548E-07   -0.107658E-22
</DataArray>
</PointData>
<CellData>
<DataArray Name="DP" type="Float64" format="ascii" NumberOfComponents="1">
      0.000000E+0000
      0.000000E+0000
      0.000000E+0000
      0.000000E+0000
      0.000000E+0000
      0.000000E+0000
      0.000000E+0000
      0.000000E+0000
      0.000000E+0000
      0.000000E+0000
      0.000000E+0000
      0.000000E+0000
      0.000000E+0000
      0.000000E+0000
      0.000000E+0000
      0.000000E+0000
      0.000000E+0000
      0.000000E+0000
      0.000000E+0000
      0.000000E+0000
      0.000000E+0000
      0.000000E+0000
      0.000000E+0000
      0.000000E+0000
      0.000000E+0000
      0.000000E+0000
      0.000000E+0000
      0.000000E+0000
      0.000000E+0000
      0.000000E+0000
      0.000000E+0000
      0.000000E+0000
      0.000000E+0000
      0.000000E+0000
      0.000000E+0000
      0.000000E+0000
      0.000000E+0000
      0.000000E+0000
      0.000000E+0000
      0.000000E+0000
      0.000000E+0000
      0.000000E+0000
      0.000000E+0000
      0.000000E+0000
      0.000000E+0000
      0.000000E+0000
      0.000000E+0000
      0.000000E+0000
      0.000000E+0000
      0.000000E+0000
      0.000000E+0000
      0.000000E+0000
      0.000000E+0000
      0.000000E+0000
      0.000000E+0000
      0.000000E+0000
      0.000000E+0000
      0.000000E+0000
      0.000000E+0000
      0.000000E+0000
      0.000000E+0000
      0.000000E+0000
      0.000000E+0000
      0.000000E+0000
      0.000000E+0000
      0.000000E+0000
      0.000000E+0000
      0.000000E+0000
      0.000000E+0000
      0.000000E+0000
      0.000000E+0000
      0.000000E+0000
      0.000000E+0000
      0.000000E+0000
      0.000000E+0000
      0.000000E+0000
      0.000000E+0000
      0.000000E+0000
      0.000000E+0000
      0.000000E+0000
      0.000000E+0000
      0.000000E+0000
      0.000000E+0000
      0.000000E+0000
      0.000000E+0000
      0.000000E+0000
      0.000000E+0000
      0.000000E+0000
      0.000000E+0000
      0.000000E+0000
      0.000000E+0000
      0.000000E+0000
      0.000000E+0000
      0.000000E+0000
      0.000000E+0000
      0.000000E+0000
      0.000000E+0000
      0.000000E+0000
      0.000000E+0000
      0.000000E+0000
</DataArray>
<DataArray Name="P" type="Float64" format="ascii" NumberOfComponents="1">
     -0.664315E+0000
     -0.680208E+0000
     -0.696262E+0000
     -0.712475E+0000
     -0.728850E+0000
     -0.745390E+0000
     -0.762095E+0000
     -0.778967E+0000
     -0.796006E+0000
     -0.813212E+0000
     -0.664315E+0000
     -0.680208E+0000
     -0.696262E+0000
     -0.712475E+0000
     -0.728850E+0000
     -0.745390E+0000
     -0.762095E+0000
     -0.778967E+0000
     -0.796005E+0000
     -0.813212E+0000
     -0.664315E+0000
     -0.680209E+0000
     -0.696262E+0000
     -0.712475E+0000
     -0.728850E+0000
     -0.745390E+0000
     -0.762095E+0000
     -0.778967E+0000
     -0.796005E+0000
     -0.813211E+0000
     -0.664316E+0000
     -0.680209E+0000
     -0.696262E+0000
     -0.712475E+0000
     -0.728850E+0000
     -0.745389E+0000
     -0.762095E+0000
     -0.778966E+0000
     -0.796004E+0000
     -0.813211E+0000
     -0.664316E+0000
     -0.680209E+0000
     -0.696262E+0000
     -0.712475E+0000
     -0.728850E+0000
     -0.745389E+0000
     -0.762095E+0000
     -0.778966E+0000
     -0.796004E+0000
     -0.813211E+0000
     -0.664316E+0000
     -0.680209E+0000
     -0.696262E+0000
     -0.712475E+0000
     -0.728850E+0000
     -0.745389E+0000
     -0.762094E+0000
     -0.778966E+0000
     -0.796004E+0000
     -0.813210E+0000
     -0.664316E+0000
     -0.680209E+0000
     -0.696262E+0000
     -0.712475E+0000
     -0.728850E+0000
     -0.745389E+0000
     -0.762094E+0000
     -0.778966E+0000
     -0.796004E+0000
     -0.813210E+0000
     -0.664316E+0000
     -0.680209E+0000
     -0.696262E+0000
     -0.712475E+0000
     -0.728850E+0000
     -0.745389E+0000
     -0.762094E+0000
     -0.778966E+0000
     -0.796003E+0000
     -0.813210E+0000
     -0.664316E+0000
     -0.680209E+0000
     -0.696262E+0000
     -0.712475E+0000
     -0.728850E+0000
     -0.745389E+0000
     -0.762094E+0000
     -0.778965E+0000
     -0.796003E+0000
     -0.813210E+0000
     -0.664316E+0000
     -0.680210E+0000
     -0.696262E+0000
     -0.712475E+0000
     -0.728850E+0000
     -0.745389E+0000
     -0.762094E+0000
     -0.778965E+0000
     -0.796003E+0000
     -0.813210E+0000
</DataArray>
<DataArray Name="RHO" type="Float64" format="ascii" NumberOfComponents="1">
      0.117197E+0001
      0.117197E+0001
      0.117197E+0001
      0.117197E+0001
      0.117197E+0001
      0.117197E+0001
      0.117197E+0001
      0.117197E+0001
      0.117197E+0001
      0.117197E+0001
      0.117197E+0001
      0.117197E+0001
      0.117197E+0001
      0.117197E+0001
      0.117197E+0001
      0.117197E+0001
      0.117197E+0001
      0.117197E+0001
      0.117197E+0001
      0.117197E+0001
      0.117197E+0001
      0.117197E+0001
      0.117197E+0001
      0.117197E+0001
      0.117197E+0001
      0.117197E+0001
      0.117197E+0001
      0.117197E+0001
      0.117197E+0001
      0.117197E+0001
      0.117197E+0001
      0.117197E+0001
      0.117197E+0001
      0.117197E+0001
      0.117197E+0001
      0.117197E+0001
      0.117197E+0001
      0.117197E+0001
      0.117197E+0001
      0.117197E+0001
      0.117197E+0001
      0.117197E+0001
      0.117197E+0001
      0.117197E+0001
      0.117197E+0001
      0.117197E+0001
      0.117197E+0001
      0.117197E+0001
      0.117197E+0001
      0.117197E+0001
      0.117197E+0001
      0.117197E+0001
      0.117197E+0001
      0.117197E+0001
      0.117197E+0001
      0.117197E+0001
      0.117197E+0001
      0.117197E+0001
      0.117197E+0001
      0.117197E+0001
      0.117197E+0001
      0.117197E+0001