<?xml version="1.0"?>
<VTKFile type="StructuredGrid" version="0.1" byte_order="LittleEndian">
<StructuredGrid WholeExtent="         160         170          40          50           0           1">
<Piece Extent="         160         170          40          50           0           1">
<Points>
<DataArray NumberOfComponents="3" type="Float64" format="ascii">
    0.991467E-01    0.912275E-02    0.000000E+00
    0.100391E+00    0.912275E-02    0.000000E+00
    0.101649E+00    0.912275E-02    0.000000E+00
    0.102919E+00    0.912275E-02    0.000000E+00
    0.104201E+00    0.912275E-02    0.000000E+00
    0.105496E+00    0.912275E-02    0.000000E+00
    0.106805E+00    0.912275E-02    0.000000E+00
    0.108126E+00    0.912275E-02    0.000000E+00
    0.109461E+00    0.912275E-02    0.000000E+00
    0.110809E+00    0.912275E-02    0.000000E+00
    0.112170E+00    0.912275E-02    0.000000E+00
    0.991467E-01    0.940718E-02    0.000000E+00
    0.100391E+00    0.940718E-02    0.000000E+00
    0.101649E+00    0.940718E-02    0.000000E+00
    0.102919E+00    0.940718E-02    0.000000E+00
    0.104201E+00    0.940718E-02    0.000000E+00
    0.105496E+00    0.940718E-02    0.000000E+00
    0.106805E+00    0.940718E-02    0.000000E+00
    0.108126E+00    0.940718E-02    0.000000E+00
    0.109461E+00    0.940718E-02    0.000000E+00
    0.110809E+00    0.940718E-02    0.000000E+00
    0.112170E+00    0.940718E-02    0.000000E+00
    0.991467E-01    0.970015E-02    0.000000E+00
    0.100391E+00    0.970015E-02    0.000000E+00
    0.101649E+00    0.970015E-02    0.000000E+00
    0.102919E+00    0.970015E-02    0.000000E+00
    0.104201E+00    0.970015E-02    0.000000E+00
    0.105496E+00    0.970015E-02    0.000000E+00
    0.106805E+00    0.970015E-02    0.000000E+00
    0.108126E+00    0.970015E-02    0.000000E+00
    0.109461E+00    0.970015E-02    0.000000E+00
    0.110809E+00    0.970015E-02    0.000000E+00
    0.112170E+00    0.970015E-02    0.000000E+00
    0.991467E-01    0.100019E-01    0.000000E+00
    0.100391E+00    0.100019E-01    0.000000E+00
    0.101649E+00    0.100019E-01    0.000000E+00
    0.102919E+00    0.100019E-01    0.000000E+00
    0.104201E+00    0.100019E-01    0.000000E+00
    0.105496E+00    0.100019E-01    0.000000E+00
    0.106805E+00    0.100019E-01    0.000000E+00
    0.108126E+00    0.100019E-01    0.000000E+00
    0.109461E+00    0.100019E-01    0.000000E+00
    0.110809E+00    0.100019E-01    0.000000E+00
    0.112170E+00    0.100019E-01    0.000000E+00
    0.991467E-01    0.103127E-01    0.000000E+00
    0.100391E+00    0.103127E-01    0.000000E+00
    0.101649E+00    0.103127E-01    0.000000E+00
    0.102919E+00    0.103127E-01    0.000000E+00
    0.104201E+00    0.103127E-01    0.000000E+00
    0.105496E+00    0.103127E-01    0.000000E+00
    0.106805E+00    0.103127E-01    0.000000E+00
    0.108126E+00    0.103127E-01    0.000000E+00
    0.109461E+00    0.103127E-01    0.000000E+00
    0.110809E+00    0.103127E-01    0.000000E+00
    0.112170E+00    0.103127E-01    0.000000E+00
    0.991467E-01    0.106328E-01    0.000000E+00
    0.100391E+00    0.106328E-01    0.000000E+00
    0.101649E+00    0.106328E-01    0.000000E+00
    0.102919E+00    0.106328E-01    0.000000E+00
    0.104201E+00    0.106328E-01    0.000000E+00
    0.105496E+00    0.106328E-01    0.000000E+00
    0.106805E+00    0.106328E-01    0.000000E+00
    0.108126E+00    0.106328E-01    0.000000E+00
    0.109461E+00    0.106328E-01    0.000000E+00
    0.110809E+00    0.106328E-01    0.000000E+00
    0.112170E+00    0.106328E-01    0.000000E+00
    0.991467E-01    0.109626E-01    0.000000E+00
    0.100391E+00    0.109626E-01    0.000000E+00
    0.101649E+00    0.109626E-01    0.000000E+00
    0.102919E+00    0.109626E-01    0.000000E+00
    0.104201E+00    0.109626E-01    0.000000E+00
    0.105496E+00    0.109626E-01    0.000000E+00
    0.106805E+00    0.109626E-01    0.000000E+00
    0.108126E+00    0.109626E-01    0.000000E+00
    0.109461E+00    0.109626E-01    0.000000E+00
    0.110809E+00    0.109626E-01    0.000000E+00
    0.112170E+00    0.109626E-01    0.000000E+00
    0.991467E-01    0.113022E-01    0.000000E+00
    0.100391E+00    0.113022E-01    0.000000E+00
    0.101649E+00    0.113022E-01    0.000000E+00
    0.102919E+00    0.113022E-01    0.000000E+00
    0.104201E+00    0.113022E-01    0.000000E+00
    0.105496E+00    0.113022E-01    0.000000E+00
    0.106805E+00    0.113022E-01    0.000000E+00
    0.108126E+00    0.113022E-01    0.000000E+00
    0.109461E+00    0.113022E-01    0.000000E+00
    0.110809E+00    0.113022E-01    0.000000E+00
    0.112170E+00    0.113022E-01    0.000000E+00
    0.991467E-01    0.116520E-01    0.000000E+00
    0.100391E+00    0.116520E-01    0.000000E+00
    0.101649E+00    0.116520E-01    0.000000E+00
    0.102919E+00    0.116520E-01    0.000000E+00
    0.104201E+00    0.116520E-01    0.000000E+00
    0.105496E+00    0.116520E-01    0.000000E+00
    0.106805E+00    0.116520E-01    0.000000E+00
    0.108126E+00    0.116520E-01    0.000000E+00
    0.109461E+00    0.116520E-01    0.000000E+00
    0.110809E+00    0.116520E-01    0.000000E+00
    0.112170E+00    0.116520E-01    0.000000E+00
    0.991467E-01    0.120123E-01    0.000000E+00
    0.100391E+00    0.120123E-01    0.000000E+00
    0.101649E+00    0.120123E-01    0.000000E+00
    0.102919E+00    0.120123E-01    0.000000E+00
    0.104201E+00    0.120123E-01    0.000000E+00
    0.105496E+00    0.120123E-01    0.000000E+00
    0.106805E+00    0.120123E-01    0.000000E+00
    0.108126E+00    0.120123E-01    0.000000E+00
    0.109461E+00    0.120123E-01    0.000000E+00
    0.110809E+00    0.120123E-01    0.000000E+00
    0.112170E+00    0.120123E-01    0.000000E+00
    0.991467E-01    0.123834E-01    0.000000E+00
    0.100391E+00    0.123834E-01    0.000000E+00
    0.101649E+00    0.123834E-01    0.000000E+00
    0.102919E+00    0.123834E-01    0.000000E+00
    0.104201E+00    0.123834E-01    0.000000E+00
    0.105496E+00    0.123834E-01    0.000000E+00
    0.106805E+00    0.123834E-01    0.000000E+00
    0.108126E+00    0.123834E-01    0.000000E+00
    0.109461E+00    0.123834E-01    0.000000E+00
    0.110809E+00    0.123834E-01    0.000000E+00
    0.112170E+00    0.123834E-01    0.000000E+00
    0.991467E-01    0.912275E-02    0.160000E-02
    0.100391E+00    0.912275E-02    0.160000E-02
    0.101649E+00    0.912275E-02    0.160000E-02
    0.102919E+00    0.912275E-02    0.160000E-02
    0.104201E+00    0.912275E-02    0.160000E-02
    0.105496E+00    0.912275E-02    0.160000E-02
    0.106805E+00    0.912275E-02    0.160000E-02
    0.108126E+00    0.912275E-02    0.160000E-02
    0.109461E+00    0.912275E-02    0.160000E-02
    0.110809E+00    0.912275E-02    0.160000E-02
    0.112170E+00    0.912275E-02    0.160000E-02
    0.991467E-01    0.940718E-02    0.160000E-02
    0.100391E+00    0.940718E-02    0.160000E-02
    0.101649E+00    0.940718E-02    0.160000E-02
    0.102919E+00    0.940718E-02    0.160000E-02
    0.104201E+00    0.940718E-02    0.160000E-02
    0.105496E+00    0.940718E-02    0.160000E-02
    0.106805E+00    0.940718E-02    0.160000E-02
    0.108126E+00    0.940718E-02    0.160000E-02
    0.109461E+00    0.940718E-02    0.160000E-02
    0.110809E+00    0.940718E-02    0.160000E-02
    0.112170E+00    0.940718E-02    0.160000E-02
    0.991467E-01    0.970015E-02    0.160000E-02
    0.100391E+00    0.970015E-02    0.160000E-02
    0.101649E+00    0.970015E-02    0.160000E-02
    0.102919E+00    0.970015E-02    0.160000E-02
    0.104201E+00    0.970015E-02    0.160000E-02
    0.105496E+00    0.970015E-02    0.160000E-02
    0.106805E+00    0.970015E-02    0.160000E-02
    0.108126E+00    0.970015E-02    0.160000E-02
    0.109461E+00    0.970015E-02    0.160000E-02
    0.110809E+00    0.970015E-02    0.160000E-02
    0.112170E+00    0.970015E-02    0.160000E-02
    0.991467E-01    0.100019E-01    0.160000E-02
    0.100391E+00    0.100019E-01    0.160000E-02
    0.101649E+00    0.100019E-01    0.160000E-02
    0.102919E+00    0.100019E-01    0.160000E-02
    0.104201E+00    0.100019E-01    0.160000E-02
    0.105496E+00    0.100019E-01    0.160000E-02
    0.106805E+00    0.100019E-01    0.160000E-02
    0.108126E+00    0.100019E-01    0.160000E-02
    0.109461E+00    0.100019E-01    0.160000E-02
    0.110809E+00    0.100019E-01    0.160000E-02
    0.112170E+00    0.100019E-01    0.160000E-02
    0.991467E-01    0.103127E-01    0.160000E-02
    0.100391E+00    0.103127E-01    0.160000E-02
    0.101649E+00    0.103127E-01    0.160000E-02
    0.102919E+00    0.103127E-01    0.160000E-02
    0.104201E+00    0.103127E-01    0.160000E-02
    0.105496E+00    0.103127E-01    0.160000E-02
    0.106805E+00    0.103127E-01    0.160000E-02
    0.108126E+00    0.103127E-01    0.160000E-02
    0.109461E+00    0.103127E-01    0.160000E-02
    0.110809E+00    0.103127E-01    0.160000E-02
    0.112170E+00    0.103127E-01    0.160000E-02
    0.991467E-01    0.106328E-01    0.160000E-02
    0.100391E+00    0.106328E-01    0.160000E-02
    0.101649E+00    0.106328E-01    0.160000E-02
    0.102919E+00    0.106328E-01    0.160000E-02
    0.104201E+00    0.106328E-01    0.160000E-02
    0.105496E+00    0.106328E-01    0.160000E-02
    0.106805E+00    0.106328E-01    0.160000E-02
    0.108126E+00    0.106328E-01    0.160000E-02
    0.109461E+00    0.106328E-01    0.160000E-02
    0.110809E+00    0.106328E-01    0.160000E-02
    0.112170E+00    0.106328E-01    0.160000E-02
    0.991467E-01    0.109626E-01    0.160000E-02
    0.100391E+00    0.109626E-01    0.160000E-02
    0.101649E+00    0.109626E-01    0.160000E-02
    0.102919E+00    0.109626E-01    0.160000E-02
    0.104201E+00    0.109626E-01    0.160000E-02
    0.105496E+00    0.109626E-01    0.160000E-02
    0.106805E+00    0.109626E-01    0.160000E-02
    0.108126E+00    0.109626E-01    0.160000E-02
    0.109461E+00    0.109626E-01    0.160000E-02
    0.110809E+00    0.109626E-01    0.160000E-02
    0.112170E+00    0.109626E-01    0.160000E-02
    0.991467E-01    0.113022E-01    0.160000E-02
    0.100391E+00    0.113022E-01    0.160000E-02
    0.101649E+00    0.113022E-01    0.160000E-02
    0.102919E+00    0.113022E-01    0.160000E-02
    0.104201E+00    0.113022E-01    0.160000E-02
    0.105496E+00    0.113022E-01    0.160000E-02
    0.106805E+00    0.113022E-01    0.160000E-02
    0.108126E+00    0.113022E-01    0.160000E-02
    0.109461E+00    0.113022E-01    0.160000E-02
    0.110809E+00    0.113022E-01    0.160000E-02
    0.112170E+00    0.113022E-01    0.160000E-02
    0.991467E-01    0.116520E-01    0.160000E-02
    0.100391E+00    0.116520E-01    0.160000E-02
    0.101649E+00    0.116520E-01    0.160000E-02
    0.102919E+00    0.116520E-01    0.160000E-02
    0.104201E+00    0.116520E-01    0.160000E-02
    0.105496E+00    0.116520E-01    0.160000E-02
    0.106805E+00    0.116520E-01    0.160000E-02
    0.108126E+00    0.116520E-01    0.160000E-02
    0.109461E+00    0.116520E-01    0.160000E-02
    0.110809E+00    0.116520E-01    0.160000E-02
    0.112170E+00    0.116520E-01    0.160000E-02
    0.991467E-01    0.120123E-01    0.160000E-02
    0.100391E+00    0.120123E-01    0.160000E-02
    0.101649E+00    0.120123E-01    0.160000E-02
    0.102919E+00    0.120123E-01    0.160000E-02
    0.104201E+00    0.120123E-01    0.160000E-02
    0.105496E+00    0.120123E-01    0.160000E-02
    0.106805E+00    0.120123E-01    0.160000E-02
    0.108126E+00    0.120123E-01    0.160000E-02
    0.109461E+00    0.120123E-01    0.160000E-02
    0.110809E+00    0.120123E-01    0.160000E-02
    0.112170E+00    0.120123E-01    0.160000E-02
    0.991467E-01    0.123834E-01    0.160000E-02
    0.100391E+00    0.123834E-01    0.160000E-02
    0.101649E+00    0.123834E-01    0.160000E-02
    0.102919E+00    0.123834E-01    0.160000E-02
    0.104201E+00    0.123834E-01    0.160000E-02
    0.105496E+00    0.123834E-01    0.160000E-02
    0.106805E+00    0.123834E-01    0.160000E-02
    0.108126E+00    0.123834E-01    0.160000E-02
    0.109461E+00    0.123834E-01    0.160000E-02
    0.110809E+00    0.123834E-01    0.160000E-02
    0.112170E+00    0.123834E-01    0.160000E-02
</DataArray>
</Points>
<PointData>
<DataArray Name="Velocity" type="Float64" format="ascii" NumberOfComponents="3">
    0.884010E-01    0.354780E-06    0.000000E+00
    0.884009E-01    0.330737E-06    0.000000E+00
    0.884008E-01    0.304553E-06    0.000000E+00
    0.884007E-01    0.279915E-06    0.000000E+00
    0.884006E-01    0.257297E-06    0.000000E+00
    0.884006E-01    0.236447E-06    0.000000E+00
    0.884005E-01    0.217699E-06    0.000000E+00
    0.884004E-01    0.200526E-06    0.000000E+00
    0.884004E-01    0.185126E-06    0.000000E+00
    0.884003E-01    0.169394E-06    0.000000E+00
    0.884003E-01    0.155349E-06    0.000000E+00
    0.884010E-01    0.365416E-06    0.000000E+00
    0.884009E-01    0.339971E-06    0.000000E+00
    0.884008E-01    0.312966E-06    0.000000E+00
    0.884007E-01    0.287956E-06    0.000000E+00
    0.884006E-01    0.264754E-06    0.000000E+00
    0.884006E-01    0.243488E-06    0.000000E+00
    0.884005E-01    0.224231E-06    0.000000E+00
    0.884004E-01    0.206741E-06    0.000000E+00
    0.884004E-01    0.190246E-06    0.000000E+00
    0.884003E-01    0.174433E-06    0.000000E+00
    0.884003E-01    0.159370E-06    0.000000E+00
    0.884009E-01    0.375928E-06    0.000000E+00
    0.884009E-01    0.349759E-06    0.000000E+00
    0.884008E-01    0.322038E-06    0.000000E+00
    0.884007E-01    0.296414E-06    0.000000E+00
    0.884006E-01    0.272689E-06    0.000000E+00
    0.884006E-01    0.250917E-06    0.000000E+00
    0.884005E-01    0.231113E-06    0.000000E+00
    0.884004E-01    0.213043E-06    0.000000E+00
    0.884004E-01    0.196085E-06    0.000000E+00
    0.884003E-01    0.179954E-06    0.000000E+00
    0.884003E-01    0.164655E-06    0.000000E+00
    0.884009E-01    0.386540E-06    0.000000E+00
    0.884008E-01    0.359651E-06    0.000000E+00
    0.884008E-01    0.331212E-06    0.000000E+00
    0.884007E-01    0.304961E-06    0.000000E+00
    0.884006E-01    0.280693E-06    0.000000E+00
    0.884005E-01    0.258399E-06    0.000000E+00
    0.884005E-01    0.238051E-06    0.000000E+00
    0.884004E-01    0.219424E-06    0.000000E+00
    0.884004E-01    0.202006E-06    0.000000E+00
    0.884003E-01    0.185540E-06    0.000000E+00
    0.884003E-01    0.169985E-06    0.000000E+00
    0.884009E-01    0.397214E-06    0.000000E+00
    0.884008E-01    0.369606E-06    0.000000E+00
    0.884008E-01    0.340447E-06    0.000000E+00
    0.884007E-01    0.313570E-06    0.000000E+00
    0.884006E-01    0.288751E-06    0.000000E+00
    0.884005E-01    0.265931E-06    0.000000E+00
    0.884005E-01    0.245040E-06    0.000000E+00
    0.884004E-01    0.225872E-06    0.000000E+00
    0.884004E-01    0.208000E-06    0.000000E+00
    0.884003E-01    0.191192E-06    0.000000E+00
    0.884003E-01    0.175359E-06    0.000000E+00
    0.884009E-01    0.407966E-06    0.000000E+00
    0.884008E-01    0.379642E-06    0.000000E+00
    0.884007E-01    0.349763E-06    0.000000E+00
    0.884007E-01    0.322259E-06    0.000000E+00
    0.884006E-01    0.296883E-06    0.000000E+00
    0.884005E-01    0.273528E-06    0.000000E+00
    0.884005E-01    0.252097E-06    0.000000E+00
    0.884004E-01    0.232398E-06    0.000000E+00
    0.884004E-01    0.214078E-06    0.000000E+00
    0.884003E-01    0.196922E-06    0.000000E+00
    0.884003E-01    0.180791E-06    0.000000E+00
    0.884009E-01    0.418838E-06    0.000000E+00
    0.884008E-01    0.389801E-06    0.000000E+00
    0.884007E-01    0.359201E-06    0.000000E+00
    0.884007E-01    0.331065E-06    0.000000E+00
    0.884006E-01    0.305123E-06    0.000000E+00
    0.884005E-01    0.281224E-06    0.000000E+00
    0.884005E-01    0.259250E-06    0.000000E+00
    0.884004E-01    0.239028E-06    0.000000E+00
    0.884004E-01    0.220262E-06    0.000000E+00
    0.884003E-01    0.202753E-06    0.000000E+00
    0.884003E-01    0.186305E-06    0.000000E+00
    0.884009E-01    0.429884E-06    0.000000E+00
    0.884008E-01    0.400134E-06    0.000000E+00
    0.884007E-01    0.368810E-06    0.000000E+00
    0.884007E-01    0.340036E-06    0.000000E+00
    0.884006E-01    0.313517E-06    0.000000E+00
    0.884005E-01    0.289063E-06    0.000000E+00
    0.884005E-01    0.266539E-06    0.000000E+00
    0.884004E-01    0.245794E-06    0.000000E+00
    0.884004E-01    0.226584E-06    0.000000E+00
    0.884003E-01    0.208713E-06    0.000000E+00
    0.884003E-01    0.191930E-06    0.000000E+00
    0.884009E-01    0.441151E-06    0.000000E+00
    0.884008E-01    0.410688E-06    0.000000E+00
    0.884007E-01    0.378635E-06    0.000000E+00
    0.884007E-01    0.349217E-06    0.000000E+00
    0.884006E-01    0.322108E-06    0.000000E+00
    0.884005E-01    0.297083E-06    0.000000E+00
    0.884005E-01    0.273997E-06    0.000000E+00
    0.884004E-01    0.252726E-06    0.000000E+00
    0.884004E-01    0.233071E-06    0.000000E+00
    0.884003E-01    0.214830E-06    0.000000E+00
    0.884003E-01    0.197693E-06    0.000000E+00
    0.884009E-01    0.452650E-06    0.000000E+00
    0.884008E-01    0.421475E-06    0.000000E+00
    0.884007E-01    0.388691E-06    0.000000E+00
    0.884007E-01    0.358621E-06    0.000000E+00
    0.884006E-01    0.330912E-06    0.000000E+00
    0.884005E-01    0.305302E-06    0.000000E+00
    0.884005E-01    0.281640E-06    0.000000E+00
    0.884004E-01    0.259835E-06    0.000000E+00
    0.884003E-01    0.239734E-06    0.000000E+00
    0.884003E-01    0.221122E-06    0.000000E+00
    0.884003E-01    0.203610E-06    0.000000E+00
    0.884009E-01    0.464382E-06    0.000000E+00
    0.884008E-01    0.432346E-06    0.000000E+00
    0.884007E-01    0.398688E-06    0.000000E+00
    0.884006E-01    0.367764E-06    0.000000E+00
    0.884006E-01    0.339302E-06    0.000000E+00
    0.884005E-01    0.313105E-06    0.000000E+00
    0.884005E-01    0.288926E-06    0.000000E+00
    0.884004E-01    0.266583E-06    0.000000E+00
    0.884003E-01    0.245687E-06    0.000000E+00
    0.884003E-01    0.226046E-06    0.000000E+00
    0.884002E-01    0.208491E-06    0.000000E+00
    0.884010E-01    0.358342E-06   -0.877684E-22
    0.884009E-01    0.330737E-06   -0.810072E-22
    0.884008E-01    0.304553E-06   -0.745940E-22
    0.884007E-01    0.279915E-06   -0.685594E-22
    0.884006E-01    0.257297E-06   -0.630195E-22
    0.884006E-01    0.236447E-06   -0.579129E-22
    0.884005E-01    0.217699E-06   -0.533208E-22
    0.884004E-01    0.200526E-06   -0.491148E-22
    0.884004E-01    0.185126E-06   -0.453428E-22
    0.884003E-01    0.169394E-06   -0.414896E-22
    0.884003E-01    0.155349E-06   -0.380496E-22
    0.884010E-01    0.369240E-06   -0.904378E-22
    0.884009E-01    0.339971E-06   -0.832689E-22
    0.884008E-01    0.312966E-06   -0.766546E-22
    0.884007E-01    0.287956E-06   -0.705290E-22
    0.884006E-01    0.264754E-06   -0.648460E-22
    0.884006E-01    0.243488E-06   -0.596374E-22
    0.884005E-01    0.224231E-06   -0.549208E-22
    0.884004E-01    0.206741E-06   -0.506369E-22
    0.884004E-01    0.190246E-06   -0.465969E-22
    0.884003E-01    0.174433E-06   -0.427236E-22
    0.884003E-01    0.159370E-06   -0.390343E-22
    0.884009E-01    0.379867E-06   -0.930406E-22
    0.884009E-01    0.349759E-06   -0.856662E-22
    0.884008E-01    0.322038E-06   -0.788765E-22
    0.884007E-01    0.296414E-06   -0.726004E-22
    0.884006E-01    0.272689E-06   -0.667896E-22
    0.884006E-01    0.250917E-06   -0.614569E-22
    0.884005E-01    0.231113E-06   -0.566064E-22
    0.884004E-01    0.213043E-06   -0.521804E-22
    0.884004E-01    0.196085E-06   -0.480270E-22
    0.884003E-01    0.179954E-06   -0.440761E-22
    0.884003E-01    0.164655E-06   -0.403289E-22
    0.884009E-01    0.390593E-06   -0.956677E-22
    0.884008E-01    0.359651E-06   -0.880890E-22
    0.884008E-01    0.331212E-06   -0.811235E-22
    0.884007E-01    0.304961E-06   -0.746939E-22
    0.884006E-01    0.280693E-06   -0.687499E-22
    0.884005E-01    0.258399E-06   -0.632896E-22
    0.884005E-01    0.238051E-06   -0.583056E-22
    0.884004E-01    0.219424E-06   -0.537434E-22
    0.884004E-01    0.202006E-06   -0.494772E-22
    0.884003E-01    0.185540E-06   -0.454442E-22
    0.884003E-01    0.169985E-06   -0.416344E-22
    0.884009E-01    0.401380E-06   -0.983097E-22
    0.884008E-01    0.369606E-06   -0.905275E-22
    0.884008E-01    0.340447E-06   -0.833855E-22
    0.884007E-01    0.313570E-06   -0.768025E-22
    0.884006E-01    0.288751E-06   -0.707237E-22
    0.884005E-01    0.265931E-06   -0.651343E-22
    0.884005E-01    0.245040E-06   -0.600176E-22
    0.884004E-01    0.225872E-06   -0.553227E-22
    0.884004E-01    0.208000E-06   -0.509453E-22
    0.884003E-01    0.191192E-06   -0.468286E-22
    0.884003E-01    0.175359E-06   -0.429506E-22
    0.884009E-01    0.412243E-06   -0.100970E-21
    0.884008E-01    0.379642E-06   -0.929856E-22
    0.884007E-01    0.349763E-06   -0.856673E-22
    0.884007E-01    0.322259E-06   -0.789306E-22
    0.884006E-01    0.296883E-06   -0.727153E-22
    0.884005E-01    0.273528E-06   -0.669950E-22
    0.884005E-01    0.252097E-06   -0.617459E-22
    0.884004E-01    0.232398E-06   -0.569212E-22
    0.884004E-01    0.214078E-06   -0.524339E-22
    0.884003E-01    0.196922E-06   -0.482320E-22
    0.884003E-01    0.180791E-06   -0.442810E-22
    0.884009E-01    0.423225E-06   -0.103660E-21
    0.884008E-01    0.389801E-06   -0.954736E-22
    0.884007E-01    0.359201E-06   -0.879788E-22
    0.884007E-01    0.331065E-06   -0.810875E-22
    0.884006E-01    0.305123E-06   -0.747335E-22
    0.884005E-01    0.281224E-06   -0.688801E-22
    0.884005E-01    0.259250E-06   -0.634979E-22
    0.884004E-01    0.239028E-06   -0.585450E-22
    0.884004E-01    0.220262E-06   -0.539486E-22
    0.884003E-01    0.202753E-06   -0.496601E-22
    0.884003E-01    0.186305E-06   -0.456315E-22
    0.884009E-01    0.434381E-06   -0.106393E-21
    0.884008E-01    0.400134E-06   -0.980045E-22
    0.884007E-01    0.368810E-06   -0.903323E-22
    0.884007E-01    0.340036E-06   -0.832848E-22
    0.884006E-01    0.313517E-06   -0.767894E-22
    0.884005E-01    0.289063E-06   -0.708000E-22
    0.884005E-01    0.266539E-06   -0.652831E-22
    0.884004E-01    0.245794E-06   -0.602021E-22
    0.884004E-01    0.226584E-06   -0.554970E-22
    0.884003E-01    0.208713E-06   -0.511198E-22
    0.884003E-01    0.191930E-06   -0.470092E-22
    0.884009E-01    0.445758E-06   -0.109179E-21
    0.884008E-01    0.410688E-06   -0.100590E-21
    0.884007E-01    0.378635E-06   -0.927389E-22
    0.884007E-01    0.349217E-06   -0.855334E-22
    0.884006E-01    0.322108E-06   -0.788937E-22
    0.884005E-01    0.297083E-06   -0.727644E-22
    0.884005E-01    0.273997E-06   -0.671099E-22
    0.884004E-01    0.252726E-06   -0.618999E-22
    0.884004E-01    0.233071E-06   -0.570859E-22
    0.884003E-01    0.214830E-06   -0.526183E-22
    0.884003E-01    0.197693E-06   -0.484208E-22
    0.884009E-01    0.457365E-06   -0.112022E-21
    0.884008E-01    0.421475E-06   -0.103232E-21
    0.884007E-01    0.388691E-06   -0.952019E-22
    0.884007E-01    0.358621E-06   -0.878368E-22
    0.884006E-01    0.330912E-06   -0.810500E-22
    0.884005E-01    0.305302E-06   -0.747775E-22
    0.884005E-01    0.281640E-06   -0.689820E-22
    0.884004E-01    0.259835E-06   -0.636411E-22
    0.884003E-01    0.239734E-06   -0.587180E-22
    0.884003E-01    0.221122E-06   -0.541593E-22
    0.884003E-01    0.203610E-06   -0.498700E-22
    0.884009E-01    0.469247E-06   -0.114932E-21
    0.884008E-01    0.432346E-06   -0.105894E-21
    0.884007E-01    0.398688E-06   -0.976505E-22
    0.884006E-01    0.367764E-06   -0.900761E-22
    0.884006E-01    0.339302E-06   -0.831050E-22
    0.884005E-01    0.313105E-06   -0.766885E-22
    0.884005E-01    0.288926E-06   -0.707664E-22
    0.884004E-01    0.266583E-06   -0.652940E-22
    0.884003E-01    0.245687E-06   -0.601761E-22
    0.884003E-01    0.226046E-06   -0.553653E-22
    0.884002E-01    0.208491E-06   -0.510656E-22
</DataArray>
</PointData>
<CellData>
<DataArray Name="DP" type="Float64" format="ascii" NumberOfComponents="1">
      0.000000E+0000
      0.000000E+0000
      0.000000E+0000
      0.000000E+0000
      0.000000E+0000
      0.000000E+0000
      0.000000E+0000
      0.000000E+0000
      0.000000E+0000
      0.000000E+0000
      0.000000E+0000
      0.000000E+0000
      0.000000E+0000
      0.000000E+0000
      0.000000E+0000
      0.000000E+0000
      0.000000E+0000
      0.000000E+0000
      0.000000E+0000
      0.000000E+0000
      0.000000E+0000
      0.000000E+0000
      0.000000E+0000
      0.000000E+0000
      0.000000E+0000
      0.000000E+0000
      0.000000E+0000
      0.000000E+0000
      0.000000E+0000
      0.000000E+0000
      0.000000E+0000
      0.000000E+0000
      0.000000E+0000
      0.000000E+0000
      0.000000E+0000
      0.000000E+0000
      0.000000E+0000
      0.000000E+0000
      0.000000E+0000
      0.000000E+0000
      0.000000E+0000
      0.000000E+0000
      0.000000E+0000
      0.000000E+0000
      0.000000E+0000
      0.000000E+0000
      0.000000E+0000
      0.000000E+0000
      0.000000E+0000
      0.000000E+0000
      0.000000E+0000
      0.000000E+0000
      0.000000E+0000
      0.000000E+0000
      0.000000E+0000
      0.000000E+0000
      0.000000E+0000
      0.000000E+0000
      0.000000E+0000
      0.000000E+0000
      0.000000E+0000
      0.000000E+0000
      0.000000E+0000
      0.000000E+0000
      0.000000E+0000
      0.000000E+0000
      0.000000E+0000
      0.000000E+0000
      0.000000E+0000
      0.000000E+0000
      0.000000E+0000
      0.000000E+0000
      0.000000E+0000
      0.000000E+0000
      0.000000E+0000
      0.000000E+0000
      0.000000E+0000
      0.000000E+0000
      0.000000E+0000
      0.000000E+0000
      0.000000E+0000
      0.000000E+0000
      0.000000E+0000
      0.000000E+0000
      0.000000E+0000
      0.000000E+0000
      0.000000E+0000
      0.000000E+0000
      0.000000E+0000
      0.000000E+0000
      0.000000E+0000
      0.000000E+0000
      0.000000E+0000
      0.000000E+0000
      0.000000E+0000
      0.000000E+0000
      0.000000E+0000
      0.000000E+0000
      0.000000E+0000
      0.000000E+0000
</DataArray>
<DataArray Name="P" type="Float64" format="ascii" NumberOfComponents="1">
     -0.513787E+0000
     -0.528173E+0000
     -0.542704E+0000
     -0.557380E+0000
     -0.572204E+0000
     -0.587177E+0000
     -0.602299E+0000
     -0.617573E+0000
     -0.633000E+0000
     -0.648580E+0000
     -0.513788E+0000
     -0.528174E+0000
     -0.542705E+0000
     -0.557381E+0000
     -0.572205E+0000
     -0.587177E+0000
     -0.602300E+0000
     -0.617573E+0000
     -0.633000E+0000
     -0.648581E+0000
     -0.513788E+0000
     -0.528175E+0000
     -0.542705E+0000
     -0.557382E+0000
     -0.572206E+0000
     -0.587178E+0000
     -0.602300E+0000
     -0.617574E+0000
     -0.633000E+0000
     -0.648581E+0000
     -0.513789E+0000
     -0.528175E+0000
     -0.542706E+0000
     -0.557383E+0000
     -0.572206E+0000
     -0.587179E+0000
     -0.602301E+0000
     -0.617574E+0000
     -0.633000E+0000
     -0.648581E+0000
     -0.513790E+0000
     -0.528176E+0000
     -0.542707E+0000
     -0.557383E+0000
     -0.572207E+0000
     -0.587179E+0000
     -0.602301E+0000
     -0.617574E+0000
     -0.633001E+0000
     -0.648581E+0000
     -0.513790E+0000
     -0.528177E+0000
     -0.542708E+0000
     -0.557384E+0000
     -0.572208E+0000
     -0.587180E+0000
     -0.602302E+0000
     -0.617575E+0000
     -0.633001E+0000
     -0.648581E+0000
     -0.513791E+0000
     -0.528177E+0000
     -0.542708E+0000
     -0.557385E+0000
     -0.572208E+0000
     -0.587180E+0000
     -0.602302E+0000
     -0.617575E+0000
     -0.633001E+0000
     -0.648581E+0000
     -0.513791E+0000
     -0.528178E+0000
     -0.542709E+0000
     -0.557385E+0000
     -0.572209E+0000
     -0.587181E+0000
     -0.602302E+0000
     -0.617575E+0000
     -0.633001E+0000
     -0.648581E+0000
     -0.513792E+0000
     -0.528179E+0000
     -0.542709E+0000
     -0.557386E+0000
     -0.572209E+0000
     -0.587181E+0000
     -0.602303E+0000
     -0.617576E+0000
     -0.633002E+0000
     -0.648582E+0000
     -0.513793E+0000
     -0.528179E+0000
     -0.542710E+0000
     -0.557386E+0000
     -0.572210E+0000
     -0.587182E+0000
     -0.602303E+0000
     -0.617576E+0000
     -0.633002E+0000
     -0.648582E+0000
</DataArray>
<DataArray Name="RHO" type="Float64" format="ascii" NumberOfComponents="1">
      0.117197E+0001
      0.117197E+0001
      0.117197E+0001
      0.117197E+0001
      0.117197E+0001
      0.117197E+0001
      0.117197E+0001
      0.117197E+0001
      0.117197E+0001
      0.117197E+0001
      0.117197E+0001
      0.117197E+0001
      0.117197E+0001
      0.117197E+0001
      0.117197E+0001
      0.117197E+0001
      0.117197E+0001
      0.117197E+0001
      0.117197E+0001
      0.117197E+0001
      0.117197E+0001
      0.117197E+0001
      0.117197E+0001
      0.117197E+0001
      0.117197E+0001
      0.117197E+0001
      0.117197E+0001
      0.117197E+0001
      0.117197E+0001
      0.117197E+0001
      0.117197E+0001
      0.117197E+0001
      0.117197E+0001
      0.117197E+0001
      0.117197E+0001
      0.117197E+0001
      0.117197E+0001
      0.117197E+0001
      0.117197E+0001
      0.117197E+0001
      0.117197E+0001
      0.117197E+0001
      0.117197E+0001
      0.117197E+0001
      0.117197E+0001
      0.117197E+0001
      0.117197E+0001
      0.117197E+0001
      0.117197E+0001
      0.117197E+0001
      0.117197E+0001
      0.117197E+0001
      0.117197E+0001
      0.117197E+0001
      0.117197E+0001
      0.117197E+0001
      0.117197E+0001
      0.117197E+0001
      0.117197E+0001
      0.117197E+0001
      0.117197E+0001
      0.117197E+0001