<?xml version="1.0"?>
<VTKFile type="StructuredGrid" version="0.1" byte_order="LittleEndian">
<StructuredGrid WholeExtent="         170         180          60          70           0           1">
<Piece Extent="         170         180          60          70           0           1">
<Points>
<DataArray NumberOfComponents="3" type="Float64" format="ascii">
    0.112170E+00    0.167655E-01    0.000000E+00
    0.113545E+00    0.167655E-01    0.000000E+00
    0.114934E+00    0.167655E-01    0.000000E+00
    0.116336E+00    0.167655E-01    0.000000E+00
    0.117753E+00    0.167655E-01    0.000000E+00
    0.119184E+00    0.167655E-01    0.000000E+00
    0.120629E+00    0.167655E-01    0.000000E+00
    0.122089E+00    0.167655E-01    0.000000E+00
    0.123563E+00    0.167655E-01    0.000000E+00
    0.125052E+00    0.167655E-01    0.000000E+00
    0.126556E+00    0.167655E-01    0.000000E+00
    0.112170E+00    0.172792E-01    0.000000E+00
    0.113545E+00    0.172792E-01    0.000000E+00
    0.114934E+00    0.172792E-01    0.000000E+00
    0.116336E+00    0.172792E-01    0.000000E+00
    0.117753E+00    0.172792E-01    0.000000E+00
    0.119184E+00    0.172792E-01    0.000000E+00
    0.120629E+00    0.172792E-01    0.000000E+00
    0.122089E+00    0.172792E-01    0.000000E+00
    0.123563E+00    0.172792E-01    0.000000E+00
    0.125052E+00    0.172792E-01    0.000000E+00
    0.126556E+00    0.172792E-01    0.000000E+00
    0.112170E+00    0.178083E-01    0.000000E+00
    0.113545E+00    0.178083E-01    0.000000E+00
    0.114934E+00    0.178083E-01    0.000000E+00
    0.116336E+00    0.178083E-01    0.000000E+00
    0.117753E+00    0.178083E-01    0.000000E+00
    0.119184E+00    0.178083E-01    0.000000E+00
    0.120629E+00    0.178083E-01    0.000000E+00
    0.122089E+00    0.178083E-01    0.000000E+00
    0.123563E+00    0.178083E-01    0.000000E+00
    0.125052E+00    0.178083E-01    0.000000E+00
    0.126556E+00    0.178083E-01    0.000000E+00
    0.112170E+00    0.183533E-01    0.000000E+00
    0.113545E+00    0.183533E-01    0.000000E+00
    0.114934E+00    0.183533E-01    0.000000E+00
    0.116336E+00    0.183533E-01    0.000000E+00
    0.117753E+00    0.183533E-01    0.000000E+00
    0.119184E+00    0.183533E-01    0.000000E+00
    0.120629E+00    0.183533E-01    0.000000E+00
    0.122089E+00    0.183533E-01    0.000000E+00
    0.123563E+00    0.183533E-01    0.000000E+00
    0.125052E+00    0.183533E-01    0.000000E+00
    0.126556E+00    0.183533E-01    0.000000E+00
    0.112170E+00    0.189147E-01    0.000000E+00
    0.113545E+00    0.189147E-01    0.000000E+00
    0.114934E+00    0.189147E-01    0.000000E+00
    0.116336E+00    0.189147E-01    0.000000E+00
    0.117753E+00    0.189147E-01    0.000000E+00
    0.119184E+00    0.189147E-01    0.000000E+00
    0.120629E+00    0.189147E-01    0.000000E+00
    0.122089E+00    0.189147E-01    0.000000E+00
    0.123563E+00    0.189147E-01    0.000000E+00
    0.125052E+00    0.189147E-01    0.000000E+00
    0.126556E+00    0.189147E-01    0.000000E+00
    0.112170E+00    0.194929E-01    0.000000E+00
    0.113545E+00    0.194929E-01    0.000000E+00
    0.114934E+00    0.194929E-01    0.000000E+00
    0.116336E+00    0.194929E-01    0.000000E+00
    0.117753E+00    0.194929E-01    0.000000E+00
    0.119184E+00    0.194929E-01    0.000000E+00
    0.120629E+00    0.194929E-01    0.000000E+00
    0.122089E+00    0.194929E-01    0.000000E+00
    0.123563E+00    0.194929E-01    0.000000E+00
    0.125052E+00    0.194929E-01    0.000000E+00
    0.126556E+00    0.194929E-01    0.000000E+00
    0.112170E+00    0.200884E-01    0.000000E+00
    0.113545E+00    0.200884E-01    0.000000E+00
    0.114934E+00    0.200884E-01    0.000000E+00
    0.116336E+00    0.200884E-01    0.000000E+00
    0.117753E+00    0.200884E-01    0.000000E+00
    0.119184E+00    0.200884E-01    0.000000E+00
    0.120629E+00    0.200884E-01    0.000000E+00
    0.122089E+00    0.200884E-01    0.000000E+00
    0.123563E+00    0.200884E-01    0.000000E+00
    0.125052E+00    0.200884E-01    0.000000E+00
    0.126556E+00    0.200884E-01    0.000000E+00
    0.112170E+00    0.207018E-01    0.000000E+00
    0.113545E+00    0.207018E-01    0.000000E+00
    0.114934E+00    0.207018E-01    0.000000E+00
    0.116336E+00    0.207018E-01    0.000000E+00
    0.117753E+00    0.207018E-01    0.000000E+00
    0.119184E+00    0.207018E-01    0.000000E+00
    0.120629E+00    0.207018E-01    0.000000E+00
    0.122089E+00    0.207018E-01    0.000000E+00
    0.123563E+00    0.207018E-01    0.000000E+00
    0.125052E+00    0.207018E-01    0.000000E+00
    0.126556E+00    0.207018E-01    0.000000E+00
    0.112170E+00    0.213336E-01    0.000000E+00
    0.113545E+00    0.213336E-01    0.000000E+00
    0.114934E+00    0.213336E-01    0.000000E+00
    0.116336E+00    0.213336E-01    0.000000E+00
    0.117753E+00    0.213336E-01    0.000000E+00
    0.119184E+00    0.213336E-01    0.000000E+00
    0.120629E+00    0.213336E-01    0.000000E+00
    0.122089E+00    0.213336E-01    0.000000E+00
    0.123563E+00    0.213336E-01    0.000000E+00
    0.125052E+00    0.213336E-01    0.000000E+00
    0.126556E+00    0.213336E-01    0.000000E+00
    0.112170E+00    0.219843E-01    0.000000E+00
    0.113545E+00    0.219843E-01    0.000000E+00
    0.114934E+00    0.219843E-01    0.000000E+00
    0.116336E+00    0.219843E-01    0.000000E+00
    0.117753E+00    0.219843E-01    0.000000E+00
    0.119184E+00    0.219843E-01    0.000000E+00
    0.120629E+00    0.219843E-01    0.000000E+00
    0.122089E+00    0.219843E-01    0.000000E+00
    0.123563E+00    0.219843E-01    0.000000E+00
    0.125052E+00    0.219843E-01    0.000000E+00
    0.126556E+00    0.219843E-01    0.000000E+00
    0.112170E+00    0.226546E-01    0.000000E+00
    0.113545E+00    0.226546E-01    0.000000E+00
    0.114934E+00    0.226546E-01    0.000000E+00
    0.116336E+00    0.226546E-01    0.000000E+00
    0.117753E+00    0.226546E-01    0.000000E+00
    0.119184E+00    0.226546E-01    0.000000E+00
    0.120629E+00    0.226546E-01    0.000000E+00
    0.122089E+00    0.226546E-01    0.000000E+00
    0.123563E+00    0.226546E-01    0.000000E+00
    0.125052E+00    0.226546E-01    0.000000E+00
    0.126556E+00    0.226546E-01    0.000000E+00
    0.112170E+00    0.167655E-01    0.160000E-02
    0.113545E+00    0.167655E-01    0.160000E-02
    0.114934E+00    0.167655E-01    0.160000E-02
    0.116336E+00    0.167655E-01    0.160000E-02
    0.117753E+00    0.167655E-01    0.160000E-02
    0.119184E+00    0.167655E-01    0.160000E-02
    0.120629E+00    0.167655E-01    0.160000E-02
    0.122089E+00    0.167655E-01    0.160000E-02
    0.123563E+00    0.167655E-01    0.160000E-02
    0.125052E+00    0.167655E-01    0.160000E-02
    0.126556E+00    0.167655E-01    0.160000E-02
    0.112170E+00    0.172792E-01    0.160000E-02
    0.113545E+00    0.172792E-01    0.160000E-02
    0.114934E+00    0.172792E-01    0.160000E-02
    0.116336E+00    0.172792E-01    0.160000E-02
    0.117753E+00    0.172792E-01    0.160000E-02
    0.119184E+00    0.172792E-01    0.160000E-02
    0.120629E+00    0.172792E-01    0.160000E-02
    0.122089E+00    0.172792E-01    0.160000E-02
    0.123563E+00    0.172792E-01    0.160000E-02
    0.125052E+00    0.172792E-01    0.160000E-02
    0.126556E+00    0.172792E-01    0.160000E-02
    0.112170E+00    0.178083E-01    0.160000E-02
    0.113545E+00    0.178083E-01    0.160000E-02
    0.114934E+00    0.178083E-01    0.160000E-02
    0.116336E+00    0.178083E-01    0.160000E-02
    0.117753E+00    0.178083E-01    0.160000E-02
    0.119184E+00    0.178083E-01    0.160000E-02
    0.120629E+00    0.178083E-01    0.160000E-02
    0.122089E+00    0.178083E-01    0.160000E-02
    0.123563E+00    0.178083E-01    0.160000E-02
    0.125052E+00    0.178083E-01    0.160000E-02
    0.126556E+00    0.178083E-01    0.160000E-02
    0.112170E+00    0.183533E-01    0.160000E-02
    0.113545E+00    0.183533E-01    0.160000E-02
    0.114934E+00    0.183533E-01    0.160000E-02
    0.116336E+00    0.183533E-01    0.160000E-02
    0.117753E+00    0.183533E-01    0.160000E-02
    0.119184E+00    0.183533E-01    0.160000E-02
    0.120629E+00    0.183533E-01    0.160000E-02
    0.122089E+00    0.183533E-01    0.160000E-02
    0.123563E+00    0.183533E-01    0.160000E-02
    0.125052E+00    0.183533E-01    0.160000E-02
    0.126556E+00    0.183533E-01    0.160000E-02
    0.112170E+00    0.189147E-01    0.160000E-02
    0.113545E+00    0.189147E-01    0.160000E-02
    0.114934E+00    0.189147E-01    0.160000E-02
    0.116336E+00    0.189147E-01    0.160000E-02
    0.117753E+00    0.189147E-01    0.160000E-02
    0.119184E+00    0.189147E-01    0.160000E-02
    0.120629E+00    0.189147E-01    0.160000E-02
    0.122089E+00    0.189147E-01    0.160000E-02
    0.123563E+00    0.189147E-01    0.160000E-02
    0.125052E+00    0.189147E-01    0.160000E-02
    0.126556E+00    0.189147E-01    0.160000E-02
    0.112170E+00    0.194929E-01    0.160000E-02
    0.113545E+00    0.194929E-01    0.160000E-02
    0.114934E+00    0.194929E-01    0.160000E-02
    0.116336E+00    0.194929E-01    0.160000E-02
    0.117753E+00    0.194929E-01    0.160000E-02
    0.119184E+00    0.194929E-01    0.160000E-02
    0.120629E+00    0.194929E-01    0.160000E-02
    0.122089E+00    0.194929E-01    0.160000E-02
    0.123563E+00    0.194929E-01    0.160000E-02
    0.125052E+00    0.194929E-01    0.160000E-02
    0.126556E+00    0.194929E-01    0.160000E-02
    0.112170E+00    0.200884E-01    0.160000E-02
    0.113545E+00    0.200884E-01    0.160000E-02
    0.114934E+00    0.200884E-01    0.160000E-02
    0.116336E+00    0.200884E-01    0.160000E-02
    0.117753E+00    0.200884E-01    0.160000E-02
    0.119184E+00    0.200884E-01    0.160000E-02
    0.120629E+00    0.200884E-01    0.160000E-02
    0.122089E+00    0.200884E-01    0.160000E-02
    0.123563E+00    0.200884E-01    0.160000E-02
    0.125052E+00    0.200884E-01    0.160000E-02
    0.126556E+00    0.200884E-01    0.160000E-02
    0.112170E+00    0.207018E-01    0.160000E-02
    0.113545E+00    0.207018E-01    0.160000E-02
    0.114934E+00    0.207018E-01    0.160000E-02
    0.116336E+00    0.207018E-01    0.160000E-02
    0.117753E+00    0.207018E-01    0.160000E-02
    0.119184E+00    0.207018E-01    0.160000E-02
    0.120629E+00    0.207018E-01    0.160000E-02
    0.122089E+00    0.207018E-01    0.160000E-02
    0.123563E+00    0.207018E-01    0.160000E-02
    0.125052E+00    0.207018E-01    0.160000E-02
    0.126556E+00    0.207018E-01    0.160000E-02
    0.112170E+00    0.213336E-01    0.160000E-02
    0.113545E+00    0.213336E-01    0.160000E-02
    0.114934E+00    0.213336E-01    0.160000E-02
    0.116336E+00    0.213336E-01    0.160000E-02
    0.117753E+00    0.213336E-01    0.160000E-02
    0.119184E+00    0.213336E-01    0.160000E-02
    0.120629E+00    0.213336E-01    0.160000E-02
    0.122089E+00    0.213336E-01    0.160000E-02
    0.123563E+00    0.213336E-01    0.160000E-02
    0.125052E+00    0.213336E-01    0.160000E-02
    0.126556E+00    0.213336E-01    0.160000E-02
    0.112170E+00    0.219843E-01    0.160000E-02
    0.113545E+00    0.219843E-01    0.160000E-02
    0.114934E+00    0.219843E-01    0.160000E-02
    0.116336E+00    0.219843E-01    0.160000E-02
    0.117753E+00    0.219843E-01    0.160000E-02
    0.119184E+00    0.219843E-01    0.160000E-02
    0.120629E+00    0.219843E-01    0.160000E-02
    0.122089E+00    0.219843E-01    0.160000E-02
    0.123563E+00    0.219843E-01    0.160000E-02
    0.125052E+00    0.219843E-01    0.160000E-02
    0.126556E+00    0.219843E-01    0.160000E-02
    0.112170E+00    0.226546E-01    0.160000E-02
    0.113545E+00    0.226546E-01    0.160000E-02
    0.114934E+00    0.226546E-01    0.160000E-02
    0.116336E+00    0.226546E-01    0.160000E-02
    0.117753E+00    0.226546E-01    0.160000E-02
    0.119184E+00    0.226546E-01    0.160000E-02
    0.120629E+00    0.226546E-01    0.160000E-02
    0.122089E+00    0.226546E-01    0.160000E-02
    0.123563E+00    0.226546E-01    0.160000E-02
    0.125052E+00    0.226546E-01    0.160000E-02
    0.126556E+00    0.226546E-01    0.160000E-02
</DataArray>
</Points>
<PointData>
<DataArray Name="Velocity" type="Float64" format="ascii" NumberOfComponents="3">
    0.884046E-01   -0.116357E-05    0.000000E+00
    0.884048E-01   -0.106793E-05    0.000000E+00
    0.884049E-01   -0.967019E-06    0.000000E+00
    0.884050E-01   -0.874527E-06    0.000000E+00
    0.884051E-01   -0.789772E-06    0.000000E+00
    0.884052E-01   -0.712126E-06    0.000000E+00
    0.884053E-01   -0.641007E-06    0.000000E+00
    0.884054E-01   -0.575890E-06    0.000000E+00
    0.884055E-01   -0.516290E-06    0.000000E+00
    0.884055E-01   -0.461807E-06    0.000000E+00
    0.884056E-01   -0.412050E-06    0.000000E+00
    0.884047E-01   -0.118228E-05    0.000000E+00
    0.884048E-01   -0.108515E-05    0.000000E+00
    0.884049E-01   -0.982731E-06    0.000000E+00
    0.884050E-01   -0.888913E-06    0.000000E+00
    0.884051E-01   -0.802968E-06    0.000000E+00
    0.884052E-01   -0.724227E-06    0.000000E+00
    0.884053E-01   -0.652077E-06    0.000000E+00
    0.884054E-01   -0.585963E-06    0.000000E+00
    0.884055E-01   -0.525392E-06    0.000000E+00
    0.884055E-01   -0.469942E-06    0.000000E+00
    0.884056E-01   -0.419266E-06    0.000000E+00
    0.884047E-01   -0.120178E-05    0.000000E+00
    0.884048E-01   -0.110300E-05    0.000000E+00
    0.884049E-01   -0.998846E-06    0.000000E+00
    0.884051E-01   -0.903443E-06    0.000000E+00
    0.884052E-01   -0.816063E-06    0.000000E+00
    0.884053E-01   -0.736031E-06    0.000000E+00
    0.884053E-01   -0.662729E-06    0.000000E+00
    0.884054E-01   -0.595595E-06    0.000000E+00
    0.884055E-01   -0.534129E-06    0.000000E+00
    0.884056E-01   -0.477899E-06    0.000000E+00
    0.884056E-01   -0.426534E-06    0.000000E+00
    0.884047E-01   -0.122129E-05    0.000000E+00
    0.884048E-01   -0.112087E-05    0.000000E+00
    0.884050E-01   -0.101498E-05    0.000000E+00
    0.884051E-01   -0.917996E-06    0.000000E+00
    0.884052E-01   -0.829187E-06    0.000000E+00
    0.884053E-01   -0.747867E-06    0.000000E+00
    0.884054E-01   -0.673412E-06    0.000000E+00
    0.884054E-01   -0.605255E-06    0.000000E+00
    0.884055E-01   -0.542888E-06    0.000000E+00
    0.884056E-01   -0.485865E-06    0.000000E+00
    0.884056E-01   -0.433800E-06    0.000000E+00
    0.884047E-01   -0.124052E-05    0.000000E+00
    0.884049E-01   -0.113849E-05    0.000000E+00
    0.884050E-01   -0.103090E-05    0.000000E+00
    0.884051E-01   -0.932364E-06    0.000000E+00
    0.884052E-01   -0.842147E-06    0.000000E+00
    0.884053E-01   -0.759559E-06    0.000000E+00
    0.884054E-01   -0.683968E-06    0.000000E+00
    0.884055E-01   -0.614801E-06    0.000000E+00
    0.884055E-01   -0.551540E-06    0.000000E+00
    0.884056E-01   -0.493731E-06    0.000000E+00
    0.884056E-01   -0.440966E-06    0.000000E+00
    0.884048E-01   -0.125918E-05    0.000000E+00
    0.884049E-01   -0.115558E-05    0.000000E+00
    0.884050E-01   -0.104634E-05    0.000000E+00
    0.884051E-01   -0.946306E-06    0.000000E+00
    0.884052E-01   -0.854727E-06    0.000000E+00
    0.884053E-01   -0.770910E-06    0.000000E+00
    0.884054E-01   -0.694218E-06    0.000000E+00
    0.884055E-01   -0.624070E-06    0.000000E+00
    0.884055E-01   -0.559942E-06    0.000000E+00
    0.884056E-01   -0.501366E-06    0.000000E+00
    0.884057E-01   -0.447919E-06    0.000000E+00
    0.884048E-01   -0.127689E-05    0.000000E+00
    0.884050E-01   -0.117182E-05    0.000000E+00
    0.884051E-01   -0.106102E-05    0.000000E+00
    0.884052E-01   -0.959556E-06    0.000000E+00
    0.884053E-01   -0.866684E-06    0.000000E+00
    0.884054E-01   -0.781702E-06    0.000000E+00
    0.884054E-01   -0.703965E-06    0.000000E+00
    0.884055E-01   -0.632886E-06    0.000000E+00
    0.884056E-01   -0.567933E-06    0.000000E+00
    0.884056E-01   -0.508627E-06    0.000000E+00
    0.884057E-01   -0.454532E-06    0.000000E+00
    0.884049E-01   -0.129328E-05    0.000000E+00
    0.884050E-01   -0.118684E-05    0.000000E+00
    0.884051E-01   -0.107459E-05    0.000000E+00
    0.884052E-01   -0.971815E-06    0.000000E+00
    0.884053E-01   -0.877750E-06    0.000000E+00
    0.884054E-01   -0.791690E-06    0.000000E+00
    0.884055E-01   -0.712988E-06    0.000000E+00
    0.884055E-01   -0.641049E-06    0.000000E+00
    0.884056E-01   -0.575334E-06    0.000000E+00
    0.884057E-01   -0.515354E-06    0.000000E+00
    0.884057E-01   -0.460660E-06    0.000000E+00
    0.884050E-01   -0.130790E-05    0.000000E+00
    0.884051E-01   -0.120024E-05    0.000000E+00
    0.884052E-01   -0.108670E-05    0.000000E+00
    0.884053E-01   -0.982749E-06    0.000000E+00
    0.884054E-01   -0.887621E-06    0.000000E+00
    0.884054E-01   -0.800602E-06    0.000000E+00
    0.884055E-01   -0.721040E-06    0.000000E+00
    0.884056E-01   -0.648336E-06    0.000000E+00
    0.884056E-01   -0.581945E-06    0.000000E+00
    0.884057E-01   -0.521367E-06    0.000000E+00
    0.884057E-01   -0.466144E-06    0.000000E+00
    0.884051E-01   -0.132026E-05    0.000000E+00
    0.884052E-01   -0.121156E-05    0.000000E+00
    0.884053E-01   -0.109692E-05    0.000000E+00
    0.884053E-01   -0.991980E-06    0.000000E+00
    0.884054E-01   -0.895955E-06    0.000000E+00
    0.884055E-01   -0.808128E-06    0.000000E+00
    0.884056E-01   -0.727842E-06    0.000000E+00
    0.884056E-01   -0.654497E-06    0.000000E+00
    0.884057E-01   -0.587539E-06    0.000000E+00
    0.884057E-01   -0.526464E-06    0.000000E+00
    0.884058E-01   -0.470802E-06    0.000000E+00
    0.884051E-01   -0.132850E-05    0.000000E+00
    0.884052E-01   -0.121905E-05    0.000000E+00
    0.884053E-01   -0.110370E-05    0.000000E+00
    0.884054E-01   -0.998107E-06    0.000000E+00
    0.884055E-01   -0.901519E-06    0.000000E+00
    0.884055E-01   -0.813213E-06    0.000000E+00
    0.884056E-01   -0.732518E-06    0.000000E+00
    0.884057E-01   -0.658817E-06    0.000000E+00
    0.884057E-01   -0.591542E-06    0.000000E+00
    0.884058E-01   -0.530176E-06    0.000000E+00
    0.884058E-01   -0.474225E-06    0.000000E+00
    0.884046E-01   -0.117800E-05    0.288526E-21
    0.884048E-01   -0.106793E-05    0.261567E-21
    0.884049E-01   -0.967019E-06    0.236851E-21
    0.884050E-01   -0.874527E-06    0.214197E-21
    0.884051E-01   -0.789772E-06    0.193438E-21
    0.884052E-01   -0.712126E-06    0.174420E-21
    0.884053E-01   -0.641007E-06    0.157001E-21
    0.884054E-01   -0.575890E-06    0.141052E-21
    0.884055E-01   -0.516290E-06    0.126455E-21
    0.884055E-01   -0.461807E-06    0.113110E-21
    0.884056E-01   -0.412050E-06    0.100923E-21
    0.884047E-01   -0.119694E-05    0.293165E-21
    0.884048E-01   -0.108515E-05    0.265784E-21
    0.884049E-01   -0.982731E-06    0.240700E-21
    0.884050E-01   -0.888913E-06    0.217721E-21
    0.884051E-01   -0.802968E-06    0.196670E-21
    0.884052E-01   -0.724227E-06    0.177384E-21
    0.884053E-01   -0.652077E-06    0.159713E-21
    0.884054E-01   -0.585963E-06    0.143519E-21
    0.884055E-01   -0.525392E-06    0.128684E-21
    0.884055E-01   -0.469942E-06    0.115103E-21
    0.884056E-01   -0.419266E-06    0.102691E-21
    0.884047E-01   -0.121668E-05    0.298001E-21
    0.884048E-01   -0.110300E-05    0.270157E-21
    0.884049E-01   -0.998846E-06    0.244647E-21
    0.884051E-01   -0.903443E-06    0.221280E-21
    0.884052E-01   -0.816063E-06    0.199878E-21
    0.884053E-01   -0.736031E-06    0.180276E-21
    0.884053E-01   -0.662729E-06    0.162322E-21
    0.884054E-01   -0.595595E-06    0.145879E-21
    0.884055E-01   -0.534129E-06    0.130824E-21
    0.884056E-01   -0.477899E-06    0.117051E-21
    0.884056E-01   -0.426534E-06    0.104471E-21
    0.884047E-01   -0.123643E-05    0.302839E-21
    0.884048E-01   -0.112087E-05    0.274533E-21
    0.884050E-01   -0.101498E-05    0.248598E-21
    0.884051E-01   -0.917996E-06    0.224844E-21
    0.884052E-01   -0.829187E-06    0.203092E-21
    0.884053E-01   -0.747867E-06    0.183175E-21
    0.884054E-01   -0.673412E-06    0.164938E-21
    0.884054E-01   -0.605255E-06    0.148245E-21
    0.884055E-01   -0.542888E-06    0.132969E-21
    0.884056E-01   -0.485865E-06    0.119003E-21
    0.884056E-01   -0.433800E-06    0.106250E-21
    0.884047E-01   -0.125591E-05    0.307610E-21
    0.884049E-01   -0.113849E-05    0.278849E-21
    0.884050E-01   -0.103090E-05    0.252497E-21
    0.884051E-01   -0.932364E-06    0.228363E-21
    0.884052E-01   -0.842147E-06    0.206267E-21
    0.884053E-01   -0.759559E-06    0.186038E-21
    0.884054E-01   -0.683968E-06    0.167524E-21
    0.884055E-01   -0.614801E-06    0.150583E-21
    0.884055E-01   -0.551540E-06    0.135088E-21
    0.884056E-01   -0.493731E-06    0.120929E-21
    0.884056E-01   -0.440966E-06    0.108006E-21
    0.884048E-01   -0.127480E-05    0.312236E-21
    0.884049E-01   -0.115558E-05    0.283036E-21
    0.884050E-01   -0.104634E-05    0.256280E-21
    0.884051E-01   -0.946306E-06    0.231778E-21
    0.884052E-01   -0.854727E-06    0.209348E-21
    0.884053E-01   -0.770910E-06    0.188818E-21
    0.884054E-01   -0.694218E-06    0.170034E-21
    0.884055E-01   -0.624070E-06    0.152853E-21
    0.884055E-01   -0.559942E-06    0.137146E-21
    0.884056E-01   -0.501366E-06    0.122799E-21
    0.884057E-01   -0.447919E-06    0.109709E-21
    0.884048E-01   -0.129274E-05    0.316630E-21
    0.884050E-01   -0.117182E-05    0.287013E-21
    0.884051E-01   -0.106102E-05    0.259874E-21
    0.884052E-01   -0.959556E-06    0.235023E-21
    0.884053E-01   -0.866684E-06    0.212276E-21
    0.884054E-01   -0.781702E-06    0.191462E-21
    0.884054E-01   -0.703965E-06    0.172422E-21
    0.884055E-01   -0.632886E-06    0.155012E-21
    0.884056E-01   -0.567933E-06    0.139103E-21
    0.884056E-01   -0.508627E-06    0.124578E-21
    0.884057E-01   -0.454532E-06    0.111328E-21
    0.884049E-01   -0.130933E-05    0.320694E-21
    0.884050E-01   -0.118684E-05    0.290692E-21
    0.884051E-01   -0.107459E-05    0.263199E-21
    0.884052E-01   -0.971815E-06    0.238026E-21
    0.884053E-01   -0.877750E-06    0.214987E-21
    0.884054E-01   -0.791690E-06    0.193908E-21
    0.884055E-01   -0.712988E-06    0.174632E-21
    0.884055E-01   -0.641049E-06    0.157012E-21
    0.884056E-01   -0.575334E-06    0.140916E-21
    0.884057E-01   -0.515354E-06    0.126225E-21
    0.884057E-01   -0.460660E-06    0.112829E-21
    0.884050E-01   -0.132414E-05    0.324320E-21
    0.884051E-01   -0.120024E-05    0.293974E-21
    0.884052E-01   -0.108670E-05    0.266164E-21
    0.884053E-01   -0.982749E-06    0.240704E-21
    0.884054E-01   -0.887621E-06    0.217404E-21
    0.884054E-01   -0.800602E-06    0.196091E-21
    0.884055E-01   -0.721040E-06    0.176604E-21
    0.884056E-01   -0.648336E-06    0.158797E-21
    0.884056E-01   -0.581945E-06    0.142535E-21
    0.884057E-01   -0.521367E-06    0.127698E-21
    0.884057E-01   -0.466144E-06    0.114172E-21
    0.884051E-01   -0.133664E-05    0.327383E-21
    0.884052E-01   -0.121156E-05    0.296746E-21
    0.884053E-01   -0.109692E-05    0.268667E-21
    0.884053E-01   -0.991980E-06    0.242965E-21
    0.884054E-01   -0.895955E-06    0.219446E-21
    0.884055E-01   -0.808128E-06    0.197934E-21
    0.884056E-01   -0.727842E-06    0.178270E-21
    0.884056E-01   -0.654497E-06    0.160305E-21
    0.884057E-01   -0.587539E-06    0.143906E-21
    0.884057E-01   -0.526464E-06    0.128946E-21
    0.884058E-01   -0.470802E-06    0.115313E-21
    0.884051E-01   -0.134502E-05    0.329436E-21
    0.884052E-01   -0.121905E-05    0.298580E-21
    0.884053E-01   -0.110370E-05    0.270328E-21
    0.884054E-01   -0.998107E-06    0.244466E-21
    0.884055E-01   -0.901519E-06    0.220808E-21
    0.884055E-01   -0.813213E-06    0.199180E-21
    0.884056E-01   -0.732518E-06    0.179415E-21
    0.884057E-01   -0.658817E-06    0.161364E-21
    0.884057E-01   -0.591542E-06    0.144886E-21
    0.884058E-01   -0.530176E-06    0.129856E-21
    0.884058E-01   -0.474225E-06    0.116152E-21
</DataArray>
</PointData>
<CellData>
<DataArray Name="DP" type="Float64" format="ascii" NumberOfComponents="1">
      0.000000E+0000
      0.000000E+0000
      0.000000E+0000
      0.000000E+0000
      0.000000E+0000
      0.000000E+0000
      0.000000E+0000
      0.000000E+0000
      0.000000E+0000
      0.000000E+0000
      0.000000E+0000
      0.000000E+0000
      0.000000E+0000
      0.000000E+0000
      0.000000E+0000
      0.000000E+0000
      0.000000E+0000
      0.000000E+0000
      0.000000E+0000
      0.000000E+0000
      0.000000E+0000
      0.000000E+0000
      0.000000E+0000
      0.000000E+0000
      0.000000E+0000
      0.000000E+0000
      0.000000E+0000
      0.000000E+0000
      0.000000E+0000
      0.000000E+0000
      0.000000E+0000
      0.000000E+0000
      0.000000E+0000
      0.000000E+0000
      0.000000E+0000
      0.000000E+0000
      0.000000E+0000
      0.000000E+0000
      0.000000E+0000
      0.000000E+0000
      0.000000E+0000
      0.000000E+0000
      0.000000E+0000
      0.000000E+0000
      0.000000E+0000
      0.000000E+0000
      0.000000E+0000
      0.000000E+0000
      0.000000E+0000
      0.000000E+0000
      0.000000E+0000
      0.000000E+0000
      0.000000E+0000
      0.000000E+0000
      0.000000E+0000
      0.000000E+0000
      0.000000E+0000
      0.000000E+0000
      0.000000E+0000
      0.000000E+0000
      0.000000E+0000
      0.000000E+0000
      0.000000E+0000
      0.000000E+0000
      0.000000E+0000
      0.000000E+0000
      0.000000E+0000
      0.000000E+0000
      0.000000E+0000
      0.000000E+0000
      0.000000E+0000
      0.000000E+0000
      0.000000E+0000
      0.000000E+0000
      0.000000E+0000
      0.000000E+0000
      0.000000E+0000
      0.000000E+0000
      0.000000E+0000
      0.000000E+0000
      0.000000E+0000
      0.000000E+0000
      0.000000E+0000
      0.000000E+0000
      0.000000E+0000
      0.000000E+0000
      0.000000E+0000
      0.000000E+0000
      0.000000E+0000
      0.000000E+0000
      0.000000E+0000
      0.000000E+0000
      0.000000E+0000
      0.000000E+0000
      0.000000E+0000
      0.000000E+0000
      0.000000E+0000
      0.000000E+0000
      0.000000E+0000
      0.000000E+0000
</DataArray>
<DataArray Name="P" type="Float64" format="ascii" NumberOfComponents="1">
     -0.664387E+0000
     -0.680274E+0000
     -0.696321E+0000
     -0.712528E+0000
     -0.728897E+0000
     -0.745430E+0000
     -0.762128E+0000
     -0.778993E+0000
     -0.796026E+0000
     -0.813230E+0000
     -0.664387E+0000
     -0.680274E+0000
     -0.696321E+0000
     -0.712528E+0000
     -0.728897E+0000
     -0.745430E+0000
     -0.762128E+0000
     -0.778993E+0000
     -0.796026E+0000
     -0.813230E+0000
     -0.664387E+0000
     -0.680275E+0000
     -0.696321E+0000
     -0.712528E+0000
     -0.728897E+0000
     -0.745430E+0000
     -0.762128E+0000
     -0.778993E+0000
     -0.796026E+0000
     -0.813230E+0000
     -0.664387E+0000
     -0.680275E+0000
     -0.696321E+0000
     -0.712528E+0000
     -0.728897E+0000
     -0.745430E+0000
     -0.762128E+0000
     -0.778993E+0000
     -0.796026E+0000
     -0.813230E+0000
     -0.664387E+0000
     -0.680275E+0000
     -0.696321E+0000
     -0.712528E+0000
     -0.728897E+0000
     -0.745430E+0000
     -0.762128E+0000
     -0.778993E+0000
     -0.796026E+0000
     -0.813230E+0000
     -0.664387E+0000
     -0.680275E+0000
     -0.696321E+0000
     -0.712528E+0000
     -0.728897E+0000
     -0.745430E+0000
     -0.762128E+0000
     -0.778993E+0000
     -0.796027E+0000
     -0.813231E+0000
     -0.664387E+0000
     -0.680275E+0000
     -0.696321E+0000
     -0.712528E+0000
     -0.728897E+0000
     -0.745430E+0000
     -0.762128E+0000
     -0.778993E+0000
     -0.796027E+0000
     -0.813231E+0000
     -0.664387E+0000
     -0.680275E+0000
     -0.696321E+0000
     -0.712528E+0000
     -0.728897E+0000
     -0.745430E+0000
     -0.762128E+0000
     -0.778993E+0000
     -0.796027E+0000
     -0.813231E+0000
     -0.664387E+0000
     -0.680275E+0000
     -0.696322E+0000
     -0.712529E+0000
     -0.728898E+0000
     -0.745430E+0000
     -0.762128E+0000
     -0.778993E+0000
     -0.796027E+0000
     -0.813231E+0000
     -0.664387E+0000
     -0.680275E+0000
     -0.696322E+0000
     -0.712529E+0000
     -0.728898E+0000
     -0.745430E+0000
     -0.762128E+0000
     -0.778993E+0000
     -0.796027E+0000
     -0.813231E+0000
</DataArray>
<DataArray Name="RHO" type="Float64" format="ascii" NumberOfComponents="1">
      0.117197E+0001
      0.117197E+0001
      0.117197E+0001
      0.117197E+0001
      0.117197E+0001
      0.117197E+0001
      0.117197E+0001
      0.117197E+0001
      0.117197E+0001
      0.117197E+0001
      0.117197E+0001
      0.117197E+0001
      0.117197E+0001
      0.117197E+0001
      0.117197E+0001
      0.117197E+0001
      0.117197E+0001
      0.117197E+0001
      0.117197E+0001
      0.117197E+0001
      0.117197E+0001
      0.117197E+0001
      0.117197E+0001
      0.117197E+0001
      0.117197E+0001
      0.117197E+0001
      0.117197E+0001
      0.117197E+0001
      0.117197E+0001
      0.117197E+0001
      0.117197E+0001
      0.117197E+0001
      0.117197E+0001
      0.117197E+0001
      0.117197E+0001
      0.117197E+0001
      0.117197E+0001
      0.117197E+0001
      0.117197E+0001
      0.117197E+0001
      0.117197E+0001
      0.117197E+0001
      0.117197E+0001
      0.117197E+0001
      0.117197E+0001
      0.117197E+0001
      0.117197E+0001
      0.117197E+0001
      0.117197E+0001
      0.117197E+0001
      0.117197E+0001
      0.117197E+0001
      0.117197E+0001
      0.117197E+0001
      0.117197E+0001
      0.117197E+0001
      0.117197E+0001
      0.117197E+0001
      0.117197E+0001
      0.117197E+0001
      0.117197E+0001
      0.117197E+0001