<?xml version="1.0"?>
<VTKFile type="StructuredGrid" version="0.1" byte_order="LittleEndian">
<StructuredGrid WholeExtent="          40          50          40          50           0           1">
<Piece Extent="          40          50          40          50           0           1">
<Points>
<DataArray NumberOfComponents="3" type="Float64" format="ascii">
    0.123841E-01    0.912275E-02    0.000000E+00
    0.127613E-01    0.912275E-02    0.000000E+00
    0.131422E-01    0.912275E-02    0.000000E+00
    0.135269E-01    0.912275E-02    0.000000E+00
    0.139155E-01    0.912275E-02    0.000000E+00
    0.143080E-01    0.912275E-02    0.000000E+00
    0.147044E-01    0.912275E-02    0.000000E+00
    0.151048E-01    0.912275E-02    0.000000E+00
    0.155092E-01    0.912275E-02    0.000000E+00
    0.159176E-01    0.912275E-02    0.000000E+00
    0.163301E-01    0.912275E-02    0.000000E+00
    0.123841E-01    0.940718E-02    0.000000E+00
    0.127613E-01    0.940718E-02    0.000000E+00
    0.131422E-01    0.940718E-02    0.000000E+00
    0.135269E-01    0.940718E-02    0.000000E+00
    0.139155E-01    0.940718E-02    0.000000E+00
    0.143080E-01    0.940718E-02    0.000000E+00
    0.147044E-01    0.940718E-02    0.000000E+00
    0.151048E-01    0.940718E-02    0.000000E+00
    0.155092E-01    0.940718E-02    0.000000E+00
    0.159176E-01    0.940718E-02    0.000000E+00
    0.163301E-01    0.940718E-02    0.000000E+00
    0.123841E-01    0.970015E-02    0.000000E+00
    0.127613E-01    0.970015E-02    0.000000E+00
    0.131422E-01    0.970015E-02    0.000000E+00
    0.135269E-01    0.970015E-02    0.000000E+00
    0.139155E-01    0.970015E-02    0.000000E+00
    0.143080E-01    0.970015E-02    0.000000E+00
    0.147044E-01    0.970015E-02    0.000000E+00
    0.151048E-01    0.970015E-02    0.000000E+00
    0.155092E-01    0.970015E-02    0.000000E+00
    0.159176E-01    0.970015E-02    0.000000E+00
    0.163301E-01    0.970015E-02    0.000000E+00
    0.123841E-01    0.100019E-01    0.000000E+00
    0.127613E-01    0.100019E-01    0.000000E+00
    0.131422E-01    0.100019E-01    0.000000E+00
    0.135269E-01    0.100019E-01    0.000000E+00
    0.139155E-01    0.100019E-01    0.000000E+00
    0.143080E-01    0.100019E-01    0.000000E+00
    0.147044E-01    0.100019E-01    0.000000E+00
    0.151048E-01    0.100019E-01    0.000000E+00
    0.155092E-01    0.100019E-01    0.000000E+00
    0.159176E-01    0.100019E-01    0.000000E+00
    0.163301E-01    0.100019E-01    0.000000E+00
    0.123841E-01    0.103127E-01    0.000000E+00
    0.127613E-01    0.103127E-01    0.000000E+00
    0.131422E-01    0.103127E-01    0.000000E+00
    0.135269E-01    0.103127E-01    0.000000E+00
    0.139155E-01    0.103127E-01    0.000000E+00
    0.143080E-01    0.103127E-01    0.000000E+00
    0.147044E-01    0.103127E-01    0.000000E+00
    0.151048E-01    0.103127E-01    0.000000E+00
    0.155092E-01    0.103127E-01    0.000000E+00
    0.159176E-01    0.103127E-01    0.000000E+00
    0.163301E-01    0.103127E-01    0.000000E+00
    0.123841E-01    0.106328E-01    0.000000E+00
    0.127613E-01    0.106328E-01    0.000000E+00
    0.131422E-01    0.106328E-01    0.000000E+00
    0.135269E-01    0.106328E-01    0.000000E+00
    0.139155E-01    0.106328E-01    0.000000E+00
    0.143080E-01    0.106328E-01    0.000000E+00
    0.147044E-01    0.106328E-01    0.000000E+00
    0.151048E-01    0.106328E-01    0.000000E+00
    0.155092E-01    0.106328E-01    0.000000E+00
    0.159176E-01    0.106328E-01    0.000000E+00
    0.163301E-01    0.106328E-01    0.000000E+00
    0.123841E-01    0.109626E-01    0.000000E+00
    0.127613E-01    0.109626E-01    0.000000E+00
    0.131422E-01    0.109626E-01    0.000000E+00
    0.135269E-01    0.109626E-01    0.000000E+00
    0.139155E-01    0.109626E-01    0.000000E+00
    0.143080E-01    0.109626E-01    0.000000E+00
    0.147044E-01    0.109626E-01    0.000000E+00
    0.151048E-01    0.109626E-01    0.000000E+00
    0.155092E-01    0.109626E-01    0.000000E+00
    0.159176E-01    0.109626E-01    0.000000E+00
    0.163301E-01    0.109626E-01    0.000000E+00
    0.123841E-01    0.113022E-01    0.000000E+00
    0.127613E-01    0.113022E-01    0.000000E+00
    0.131422E-01    0.113022E-01    0.000000E+00
    0.135269E-01    0.113022E-01    0.000000E+00
    0.139155E-01    0.113022E-01    0.000000E+00
    0.143080E-01    0.113022E-01    0.000000E+00
    0.147044E-01    0.113022E-01    0.000000E+00
    0.151048E-01    0.113022E-01    0.000000E+00
    0.155092E-01    0.113022E-01    0.000000E+00
    0.159176E-01    0.113022E-01    0.000000E+00
    0.163301E-01    0.113022E-01    0.000000E+00
    0.123841E-01    0.116520E-01    0.000000E+00
    0.127613E-01    0.116520E-01    0.000000E+00
    0.131422E-01    0.116520E-01    0.000000E+00
    0.135269E-01    0.116520E-01    0.000000E+00
    0.139155E-01    0.116520E-01    0.000000E+00
    0.143080E-01    0.116520E-01    0.000000E+00
    0.147044E-01    0.116520E-01    0.000000E+00
    0.151048E-01    0.116520E-01    0.000000E+00
    0.155092E-01    0.116520E-01    0.000000E+00
    0.159176E-01    0.116520E-01    0.000000E+00
    0.163301E-01    0.116520E-01    0.000000E+00
    0.123841E-01    0.120123E-01    0.000000E+00
    0.127613E-01    0.120123E-01    0.000000E+00
    0.131422E-01    0.120123E-01    0.000000E+00
    0.135269E-01    0.120123E-01    0.000000E+00
    0.139155E-01    0.120123E-01    0.000000E+00
    0.143080E-01    0.120123E-01    0.000000E+00
    0.147044E-01    0.120123E-01    0.000000E+00
    0.151048E-01    0.120123E-01    0.000000E+00
    0.155092E-01    0.120123E-01    0.000000E+00
    0.159176E-01    0.120123E-01    0.000000E+00
    0.163301E-01    0.120123E-01    0.000000E+00
    0.123841E-01    0.123834E-01    0.000000E+00
    0.127613E-01    0.123834E-01    0.000000E+00
    0.131422E-01    0.123834E-01    0.000000E+00
    0.135269E-01    0.123834E-01    0.000000E+00
    0.139155E-01    0.123834E-01    0.000000E+00
    0.143080E-01    0.123834E-01    0.000000E+00
    0.147044E-01    0.123834E-01    0.000000E+00
    0.151048E-01    0.123834E-01    0.000000E+00
    0.155092E-01    0.123834E-01    0.000000E+00
    0.159176E-01    0.123834E-01    0.000000E+00
    0.163301E-01    0.123834E-01    0.000000E+00
    0.123841E-01    0.912275E-02    0.160000E-02
    0.127613E-01    0.912275E-02    0.160000E-02
    0.131422E-01    0.912275E-02    0.160000E-02
    0.135269E-01    0.912275E-02    0.160000E-02
    0.139155E-01    0.912275E-02    0.160000E-02
    0.143080E-01    0.912275E-02    0.160000E-02
    0.147044E-01    0.912275E-02    0.160000E-02
    0.151048E-01    0.912275E-02    0.160000E-02
    0.155092E-01    0.912275E-02    0.160000E-02
    0.159176E-01    0.912275E-02    0.160000E-02
    0.163301E-01    0.912275E-02    0.160000E-02
    0.123841E-01    0.940718E-02    0.160000E-02
    0.127613E-01    0.940718E-02    0.160000E-02
    0.131422E-01    0.940718E-02    0.160000E-02
    0.135269E-01    0.940718E-02    0.160000E-02
    0.139155E-01    0.940718E-02    0.160000E-02
    0.143080E-01    0.940718E-02    0.160000E-02
    0.147044E-01    0.940718E-02    0.160000E-02
    0.151048E-01    0.940718E-02    0.160000E-02
    0.155092E-01    0.940718E-02    0.160000E-02
    0.159176E-01    0.940718E-02    0.160000E-02
    0.163301E-01    0.940718E-02    0.160000E-02
    0.123841E-01    0.970015E-02    0.160000E-02
    0.127613E-01    0.970015E-02    0.160000E-02
    0.131422E-01    0.970015E-02    0.160000E-02
    0.135269E-01    0.970015E-02    0.160000E-02
    0.139155E-01    0.970015E-02    0.160000E-02
    0.143080E-01    0.970015E-02    0.160000E-02
    0.147044E-01    0.970015E-02    0.160000E-02
    0.151048E-01    0.970015E-02    0.160000E-02
    0.155092E-01    0.970015E-02    0.160000E-02
    0.159176E-01    0.970015E-02    0.160000E-02
    0.163301E-01    0.970015E-02    0.160000E-02
    0.123841E-01    0.100019E-01    0.160000E-02
    0.127613E-01    0.100019E-01    0.160000E-02
    0.131422E-01    0.100019E-01    0.160000E-02
    0.135269E-01    0.100019E-01    0.160000E-02
    0.139155E-01    0.100019E-01    0.160000E-02
    0.143080E-01    0.100019E-01    0.160000E-02
    0.147044E-01    0.100019E-01    0.160000E-02
    0.151048E-01    0.100019E-01    0.160000E-02
    0.155092E-01    0.100019E-01    0.160000E-02
    0.159176E-01    0.100019E-01    0.160000E-02
    0.163301E-01    0.100019E-01    0.160000E-02
    0.123841E-01    0.103127E-01    0.160000E-02
    0.127613E-01    0.103127E-01    0.160000E-02
    0.131422E-01    0.103127E-01    0.160000E-02
    0.135269E-01    0.103127E-01    0.160000E-02
    0.139155E-01    0.103127E-01    0.160000E-02
    0.143080E-01    0.103127E-01    0.160000E-02
    0.147044E-01    0.103127E-01    0.160000E-02
    0.151048E-01    0.103127E-01    0.160000E-02
    0.155092E-01    0.103127E-01    0.160000E-02
    0.159176E-01    0.103127E-01    0.160000E-02
    0.163301E-01    0.103127E-01    0.160000E-02
    0.123841E-01    0.106328E-01    0.160000E-02
    0.127613E-01    0.106328E-01    0.160000E-02
    0.131422E-01    0.106328E-01    0.160000E-02
    0.135269E-01    0.106328E-01    0.160000E-02
    0.139155E-01    0.106328E-01    0.160000E-02
    0.143080E-01    0.106328E-01    0.160000E-02
    0.147044E-01    0.106328E-01    0.160000E-02
    0.151048E-01    0.106328E-01    0.160000E-02
    0.155092E-01    0.106328E-01    0.160000E-02
    0.159176E-01    0.106328E-01    0.160000E-02
    0.163301E-01    0.106328E-01    0.160000E-02
    0.123841E-01    0.109626E-01    0.160000E-02
    0.127613E-01    0.109626E-01    0.160000E-02
    0.131422E-01    0.109626E-01    0.160000E-02
    0.135269E-01    0.109626E-01    0.160000E-02
    0.139155E-01    0.109626E-01    0.160000E-02
    0.143080E-01    0.109626E-01    0.160000E-02
    0.147044E-01    0.109626E-01    0.160000E-02
    0.151048E-01    0.109626E-01    0.160000E-02
    0.155092E-01    0.109626E-01    0.160000E-02
    0.159176E-01    0.109626E-01    0.160000E-02
    0.163301E-01    0.109626E-01    0.160000E-02
    0.123841E-01    0.113022E-01    0.160000E-02
    0.127613E-01    0.113022E-01    0.160000E-02
    0.131422E-01    0.113022E-01    0.160000E-02
    0.135269E-01    0.113022E-01    0.160000E-02
    0.139155E-01    0.113022E-01    0.160000E-02
    0.143080E-01    0.113022E-01    0.160000E-02
    0.147044E-01    0.113022E-01    0.160000E-02
    0.151048E-01    0.113022E-01    0.160000E-02
    0.155092E-01    0.113022E-01    0.160000E-02
    0.159176E-01    0.113022E-01    0.160000E-02
    0.163301E-01    0.113022E-01    0.160000E-02
    0.123841E-01    0.116520E-01    0.160000E-02
    0.127613E-01    0.116520E-01    0.160000E-02
    0.131422E-01    0.116520E-01    0.160000E-02
    0.135269E-01    0.116520E-01    0.160000E-02
    0.139155E-01    0.116520E-01    0.160000E-02
    0.143080E-01    0.116520E-01    0.160000E-02
    0.147044E-01    0.116520E-01    0.160000E-02
    0.151048E-01    0.116520E-01    0.160000E-02
    0.155092E-01    0.116520E-01    0.160000E-02
    0.159176E-01    0.116520E-01    0.160000E-02
    0.163301E-01    0.116520E-01    0.160000E-02
    0.123841E-01    0.120123E-01    0.160000E-02
    0.127613E-01    0.120123E-01    0.160000E-02
    0.131422E-01    0.120123E-01    0.160000E-02
    0.135269E-01    0.120123E-01    0.160000E-02
    0.139155E-01    0.120123E-01    0.160000E-02
    0.143080E-01    0.120123E-01    0.160000E-02
    0.147044E-01    0.120123E-01    0.160000E-02
    0.151048E-01    0.120123E-01    0.160000E-02
    0.155092E-01    0.120123E-01    0.160000E-02
    0.159176E-01    0.120123E-01    0.160000E-02
    0.163301E-01    0.120123E-01    0.160000E-02
    0.123841E-01    0.123834E-01    0.160000E-02
    0.127613E-01    0.123834E-01    0.160000E-02
    0.131422E-01    0.123834E-01    0.160000E-02
    0.135269E-01    0.123834E-01    0.160000E-02
    0.139155E-01    0.123834E-01    0.160000E-02
    0.143080E-01    0.123834E-01    0.160000E-02
    0.147044E-01    0.123834E-01    0.160000E-02
    0.151048E-01    0.123834E-01    0.160000E-02
    0.155092E-01    0.123834E-01    0.160000E-02
    0.159176E-01    0.123834E-01    0.160000E-02
    0.163301E-01    0.123834E-01    0.160000E-02
</DataArray>
</Points>
<PointData>
<DataArray Name="Velocity" type="Float64" format="ascii" NumberOfComponents="3">
    0.812863E-01    0.111144E-02    0.000000E+00
    0.817895E-01    0.789027E-03    0.000000E+00
    0.822571E-01    0.347828E-03    0.000000E+00
    0.826865E-01   -0.132620E-03    0.000000E+00
    0.830771E-01   -0.614304E-03    0.000000E+00
    0.834308E-01   -0.106485E-02    0.000000E+00
    0.837500E-01   -0.145973E-02    0.000000E+00
    0.840379E-01   -0.178325E-02    0.000000E+00
    0.842979E-01   -0.202827E-02    0.000000E+00
    0.845330E-01   -0.219512E-02    0.000000E+00
    0.847463E-01   -0.228979E-02    0.000000E+00
    0.815387E-01    0.708966E-03    0.000000E+00
    0.820043E-01    0.413689E-03    0.000000E+00
    0.824418E-01    0.990949E-05    0.000000E+00
    0.828473E-01   -0.429409E-03    0.000000E+00
    0.832192E-01   -0.869146E-03    0.000000E+00
    0.835576E-01   -0.127920E-02    0.000000E+00
    0.838641E-01   -0.163668E-02    0.000000E+00
    0.841411E-01   -0.192688E-02    0.000000E+00
    0.843912E-01   -0.214316E-02    0.000000E+00
    0.846175E-01   -0.228593E-02    0.000000E+00
    0.848226E-01   -0.236099E-02    0.000000E+00
    0.819273E-01    0.325037E-03    0.000000E+00
    0.823670E-01    0.582663E-04    0.000000E+00
    0.827773E-01   -0.306423E-03    0.000000E+00
    0.831539E-01   -0.703063E-03    0.000000E+00
    0.834951E-01   -0.109971E-02    0.000000E+00
    0.838015E-01   -0.146883E-02    0.000000E+00
    0.840755E-01   -0.178931E-02    0.000000E+00
    0.843206E-01   -0.204750E-02    0.000000E+00
    0.845404E-01   -0.223716E-02    0.000000E+00
    0.847389E-01   -0.235857E-02    0.000000E+00
    0.849197E-01   -0.241710E-02    0.000000E+00
    0.823143E-01   -0.304131E-04    0.000000E+00
    0.827180E-01   -0.269242E-03    0.000000E+00
    0.830937E-01   -0.595632E-03    0.000000E+00
    0.834368E-01   -0.950559E-03    0.000000E+00
    0.837457E-01   -0.130530E-02    0.000000E+00
    0.840211E-01   -0.163493E-02    0.000000E+00
    0.842658E-01   -0.192019E-02    0.000000E+00
    0.844833E-01   -0.214848E-02    0.000000E+00
    0.846780E-01   -0.231390E-02    0.000000E+00
    0.848539E-01   -0.241653E-02    0.000000E+00
    0.850150E-01   -0.246114E-02    0.000000E+00
    0.826976E-01   -0.350927E-03    0.000000E+00
    0.830597E-01   -0.563713E-03    0.000000E+00
    0.833967E-01   -0.854304E-03    0.000000E+00
    0.837042E-01   -0.117022E-02    0.000000E+00
    0.839805E-01   -0.148585E-02    0.000000E+00
    0.842264E-01   -0.177877E-02    0.000000E+00
    0.844445E-01   -0.203154E-02    0.000000E+00
    0.846383E-01   -0.223258E-02    0.000000E+00
    0.848119E-01   -0.237631E-02    0.000000E+00
    0.849694E-01   -0.246256E-02    0.000000E+00
    0.851145E-01   -0.249549E-02    0.000000E+00
    0.830739E-01   -0.632935E-03    0.000000E+00
    0.833922E-01   -0.822441E-03    0.000000E+00
    0.836892E-01   -0.108084E-02    0.000000E+00
    0.839608E-01   -0.136159E-02    0.000000E+00
    0.842055E-01   -0.164192E-02    0.000000E+00
    0.844239E-01   -0.190178E-02    0.000000E+00
    0.846181E-01   -0.212541E-02    0.000000E+00
    0.847914E-01   -0.230219E-02    0.000000E+00
    0.849475E-01   -0.242684E-02    0.000000E+00
    0.850900E-01   -0.249898E-02    0.000000E+00
    0.852222E-01   -0.252215E-02    0.000000E+00
    0.834396E-01   -0.875125E-03    0.000000E+00
    0.837141E-01   -0.104464E-02    0.000000E+00
    0.839717E-01   -0.127514E-02    0.000000E+00
    0.842088E-01   -0.152524E-02    0.000000E+00
    0.844237E-01   -0.177473E-02    0.000000E+00
    0.846170E-01   -0.200569E-02    0.000000E+00
    0.847902E-01   -0.220387E-02    0.000000E+00
    0.849461E-01   -0.235954E-02    0.000000E+00
    0.850878E-01   -0.246771E-02    0.000000E+00
    0.852183E-01   -0.252778E-02    0.000000E+00
    0.853402E-01   -0.254282E-02    0.000000E+00
    0.837909E-01   -0.107774E-02    0.000000E+00
    0.840233E-01   -0.123086E-02    0.000000E+00
    0.842434E-01   -0.143816E-02    0.000000E+00
    0.844481E-01   -0.166255E-02    0.000000E+00
    0.846359E-01   -0.188605E-02    0.000000E+00
    0.848069E-01   -0.209255E-02    0.000000E+00
    0.849622E-01   -0.226913E-02    0.000000E+00
    0.851038E-01   -0.240687E-02    0.000000E+00
    0.852341E-01   -0.250103E-02    0.000000E+00
    0.853552E-01   -0.255090E-02    0.000000E+00
    0.854694E-01   -0.255909E-02    0.000000E+00
    0.841250E-01   -0.124185E-02    0.000000E+00
    0.843174E-01   -0.138245E-02    0.000000E+00
    0.845025E-01   -0.157155E-02    0.000000E+00
    0.846774E-01   -0.177547E-02    0.000000E+00
    0.848409E-01   -0.197805E-02    0.000000E+00
    0.849927E-01   -0.216471E-02    0.000000E+00
    0.851334E-01   -0.232362E-02    0.000000E+00
    0.852639E-01   -0.244652E-02    0.000000E+00
    0.853857E-01   -0.252899E-02    0.000000E+00
    0.855003E-01   -0.257023E-02    0.000000E+00
    0.856090E-01   -0.257251E-02    0.000000E+00
    0.844396E-01   -0.136855E-02    0.000000E+00
    0.845938E-01   -0.150083E-02    0.000000E+00
    0.847460E-01   -0.167714E-02    0.000000E+00
    0.848939E-01   -0.186619E-02    0.000000E+00
    0.850362E-01   -0.205323E-02    0.000000E+00
    0.851722E-01   -0.222481E-02    0.000000E+00
    0.853015E-01   -0.237001E-02    0.000000E+00
    0.854243E-01   -0.248111E-02    0.000000E+00
    0.855410E-01   -0.255396E-02    0.000000E+00
    0.856518E-01   -0.258777E-02    0.000000E+00
    0.857574E-01   -0.258466E-02    0.000000E+00
    0.847328E-01   -0.145808E-02    0.000000E+00
    0.848493E-01   -0.158684E-02    0.000000E+00
    0.849700E-01   -0.175646E-02    0.000000E+00
    0.850932E-01   -0.193688E-02    0.000000E+00
    0.852172E-01   -0.211422E-02    0.000000E+00
    0.853408E-01   -0.227582E-02    0.000000E+00
    0.854625E-01   -0.241135E-02    0.000000E+00
    0.855813E-01   -0.251356E-02    0.000000E+00
    0.856962E-01   -0.257855E-02    0.000000E+00
    0.858063E-01   -0.260576E-02    0.000000E+00
    0.859113E-01   -0.259734E-02    0.000000E+00
    0.812661E-01    0.115063E-02   -0.281823E-18
    0.817785E-01    0.789027E-03   -0.193256E-18
    0.822525E-01    0.347828E-03   -0.851933E-19
    0.826855E-01   -0.132620E-03    0.324825E-19
    0.830776E-01   -0.614304E-03    0.150461E-18
    0.834310E-01   -0.106485E-02    0.260812E-18
    0.837488E-01   -0.145973E-02    0.357530E-18
    0.840348E-01   -0.178325E-02    0.436769E-18
    0.842926E-01   -0.202827E-02    0.496784E-18
    0.845256E-01   -0.219512E-02    0.537649E-18
    0.847372E-01   -0.228979E-02    0.560836E-18
    0.815387E-01    0.744878E-03   -0.182443E-18
    0.820043E-01    0.413689E-03   -0.101325E-18
    0.824418E-01    0.990949E-05   -0.242712E-20
    0.828473E-01   -0.429409E-03    0.105175E-18
    0.832192E-01   -0.869146E-03    0.212879E-18
    0.835576E-01   -0.127920E-02    0.313315E-18
    0.838641E-01   -0.163668E-02    0.400872E-18
    0.841411E-01   -0.192688E-02    0.471949E-18
    0.843912E-01   -0.214316E-02    0.524923E-18
    0.846175E-01   -0.228593E-02    0.559890E-18
    0.848226E-01   -0.236099E-02    0.578276E-18
    0.819273E-01    0.357493E-03   -0.875605E-19
    0.823670E-01    0.582663E-04   -0.142711E-19
    0.827773E-01   -0.306423E-03    0.750520E-19
    0.831539E-01   -0.703063E-03    0.172201E-18
    0.834951E-01   -0.109971E-02    0.269352E-18
    0.838015E-01   -0.146883E-02    0.359760E-18
    0.840755E-01   -0.178931E-02    0.438254E-18
    0.843206E-01   -0.204750E-02    0.501493E-18
    0.845404E-01   -0.223716E-02    0.547946E-18
    0.847389E-01   -0.235857E-02    0.577684E-18
    0.849197E-01   -0.241710E-02    0.592020E-18
    0.823143E-01   -0.134354E-05    0.329073E-21
    0.827180E-01   -0.269242E-03    0.659454E-19
    0.830937E-01   -0.595632E-03    0.145888E-18
    0.834368E-01   -0.950559E-03    0.232820E-18
    0.837457E-01   -0.130530E-02    0.319707E-18
    0.840211E-01   -0.163493E-02    0.400443E-18
    0.842658E-01   -0.192019E-02    0.470311E-18
    0.844833E-01   -0.214848E-02    0.526225E-18
    0.846780E-01   -0.231390E-02    0.566742E-18
    0.848539E-01   -0.241653E-02    0.591878E-18
    0.850150E-01   -0.246114E-02    0.602805E-18
    0.826976E-01   -0.325003E-03    0.796027E-19
    0.830597E-01   -0.563713E-03    0.138070E-18
    0.833967E-01   -0.854304E-03    0.209244E-18
    0.837042E-01   -0.117022E-02    0.286622E-18
    0.839805E-01   -0.148585E-02    0.363927E-18
    0.842264E-01   -0.177877E-02    0.435673E-18
    0.844445E-01   -0.203154E-02    0.497583E-18
    0.846383E-01   -0.223258E-02    0.546824E-18
    0.848119E-01   -0.237631E-02    0.582028E-18
    0.849694E-01   -0.246256E-02    0.603154E-18
    0.851145E-01   -0.249549E-02    0.611220E-18
    0.830739E-01   -0.609805E-03    0.149359E-18
    0.833922E-01   -0.822441E-03    0.201440E-18
    0.836892E-01   -0.108084E-02    0.264731E-18
    0.839608E-01   -0.136159E-02    0.333494E-18
    0.842055E-01   -0.164192E-02    0.402154E-18
    0.844239E-01   -0.190178E-02    0.465802E-18
    0.846181E-01   -0.212541E-02    0.520575E-18
    0.847914E-01   -0.230219E-02    0.563873E-18
    0.849475E-01   -0.242684E-02    0.594405E-18
    0.850900E-01   -0.249898E-02    0.612072E-18
    0.852222E-01   -0.252215E-02    0.617748E-18
    0.834396E-01   -0.854370E-03    0.209260E-18
    0.837141E-01   -0.104464E-02    0.255862E-18
    0.839717E-01   -0.127514E-02    0.312319E-18
    0.842088E-01   -0.152524E-02    0.373576E-18
    0.844237E-01   -0.177473E-02    0.434684E-18
    0.846170E-01   -0.200569E-02    0.491254E-18
    0.847902E-01   -0.220387E-02    0.539793E-18
    0.849461E-01   -0.235954E-02    0.577920E-18
    0.850878E-01   -0.246771E-02    0.604414E-18
    0.852183E-01   -0.252778E-02    0.619127E-18
    0.853402E-01   -0.254282E-02    0.622812E-18
    0.837909E-01   -0.105890E-02    0.259356E-18
    0.840233E-01   -0.123086E-02    0.301475E-18
    0.842434E-01   -0.143816E-02    0.352248E-18
    0.844481E-01   -0.166255E-02    0.407208E-18
    0.846359E-01   -0.188605E-02    0.461948E-18
    0.848069E-01   -0.209255E-02    0.512527E-18
    0.849622E-01   -0.226913E-02    0.555778E-18
    0.851038E-01   -0.240687E-02    0.589512E-18
    0.852341E-01   -0.250103E-02    0.612575E-18
    0.853552E-01   -0.255090E-02    0.624791E-18
    0.854694E-01   -0.255909E-02    0.626796E-18
    0.841250E-01   -0.122443E-02    0.299900E-18
    0.843174E-01   -0.138245E-02    0.338603E-18
    0.845025E-01   -0.157155E-02    0.384919E-18
    0.846774E-01   -0.177547E-02    0.434865E-18
    0.848409E-01   -0.197805E-02    0.484483E-18
    0.849927E-01   -0.216471E-02    0.530200E-18
    0.851334E-01   -0.232362E-02    0.569122E-18
    0.852639E-01   -0.244652E-02    0.599225E-18
    0.853857E-01   -0.252899E-02    0.619424E-18
    0.855003E-01   -0.257023E-02    0.629525E-18
    0.856090E-01   -0.257251E-02    0.630082E-18
    0.844396E-01   -0.135203E-02    0.331151E-18
    0.845938E-01   -0.150083E-02    0.367598E-18
    0.847460E-01   -0.167714E-02    0.410781E-18
    0.848939E-01   -0.186619E-02    0.457086E-18
    0.850362E-01   -0.205323E-02    0.502896E-18
    0.851722E-01   -0.222481E-02    0.544922E-18
    0.853015E-01   -0.237001E-02    0.580485E-18
    0.854243E-01   -0.248111E-02    0.607698E-18
    0.855410E-01   -0.255396E-02    0.625540E-18
    0.856518E-01   -0.258777E-02    0.633820E-18
    0.857574E-01   -0.258466E-02    0.633058E-18
    0.847328E-01   -0.144182E-02    0.353143E-18
    0.848493E-01   -0.158684E-02    0.388665E-18
    0.849700E-01   -0.175646E-02    0.430209E-18
    0.850932E-01   -0.193688E-02    0.474398E-18
    0.852172E-01   -0.211422E-02    0.517834E-18
    0.853408E-01   -0.227582E-02    0.557415E-18
    0.854625E-01   -0.241135E-02    0.590612E-18
    0.855813E-01   -0.251356E-02    0.615644E-18
    0.856962E-01   -0.257855E-02    0.631564E-18
    0.858063E-01   -0.260576E-02    0.638226E-18
    0.859113E-01   -0.259734E-02    0.636164E-18
</DataArray>
</PointData>
<CellData>
<DataArray Name="DP" type="Float64" format="ascii" NumberOfComponents="1">
      0.000000E+0000
      0.000000E+0000
      0.000000E+0000
      0.000000E+0000
      0.000000E+0000
      0.000000E+0000
      0.000000E+0000
      0.000000E+0000
      0.000000E+0000
      0.000000E+0000
      0.000000E+0000
      0.000000E+0000
      0.000000E+0000
      0.000000E+0000
      0.000000E+0000
      0.000000E+0000
      0.000000E+0000
      0.000000E+0000
      0.000000E+0000
      0.000000E+0000
      0.000000E+0000
      0.000000E+0000
      0.000000E+0000
      0.000000E+0000
      0.000000E+0000
      0.000000E+0000
      0.000000E+0000
      0.000000E+0000
      0.000000E+0000
      0.000000E+0000
      0.000000E+0000
      0.000000E+0000
      0.000000E+0000
      0.000000E+0000
      0.000000E+0000
      0.000000E+0000
      0.000000E+0000
      0.000000E+0000
      0.000000E+0000
      0.000000E+0000
      0.000000E+0000
      0.000000E+0000
      0.000000E+0000
      0.000000E+0000
      0.000000E+0000
      0.000000E+0000
      0.000000E+0000
      0.000000E+0000
      0.000000E+0000
      0.000000E+0000
      0.000000E+0000
      0.000000E+0000
      0.000000E+0000
      0.000000E+0000
      0.000000E+0000
      0.000000E+0000
      0.000000E+0000
      0.000000E+0000
      0.000000E+0000
      0.000000E+0000
      0.000000E+0000
      0.000000E+0000
      0.000000E+0000
      0.000000E+0000
      0.000000E+0000
      0.000000E+0000
      0.000000E+0000
      0.000000E+0000
      0.000000E+0000
      0.000000E+0000
      0.000000E+0000
      0.000000E+0000
      0.000000E+0000
      0.000000E+0000
      0.000000E+0000
      0.000000E+0000
      0.000000E+0000
      0.000000E+0000
      0.000000E+0000
      0.000000E+0000
      0.000000E+0000
      0.000000E+0000
      0.000000E+0000
      0.000000E+0000
      0.000000E+0000
      0.000000E+0000
      0.000000E+0000
      0.000000E+0000
      0.000000E+0000
      0.000000E+0000
      0.000000E+0000
      0.000000E+0000
      0.000000E+0000
      0.000000E+0000
      0.000000E+0000
      0.000000E+0000
      0.000000E+0000
      0.000000E+0000
      0.000000E+0000
      0.000000E+0000
</DataArray>
<DataArray Name="P" type="Float64" format="ascii" NumberOfComponents="1">
      0.488967E+0000
      0.484616E+0000
      0.480216E+0000
      0.475768E+0000
      0.471271E+0000
      0.466728E+0000
      0.462137E+0000
      0.457499E+0000
      0.452815E+0000
      0.448084E+0000
      0.488924E+0000
      0.484575E+0000
      0.480178E+0000
      0.475732E+0000
      0.471239E+0000
      0.466698E+0000
      0.462110E+0000
      0.457475E+0000
      0.452792E+0000
      0.448063E+0000
      0.488885E+0000
      0.484537E+0000
      0.480141E+0000
      0.475698E+0000
      0.471207E+0000
      0.466668E+0000
      0.462083E+0000
      0.457450E+0000
      0.452770E+0000
      0.448042E+0000
      0.488849E+0000
      0.484502E+0000
      0.480107E+0000
      0.475666E+0000
      0.471177E+0000
      0.466640E+0000
      0.462057E+0000
      0.457426E+0000
      0.452748E+0000
      0.448022E+0000
      0.488815E+0000
      0.484469E+0000
      0.480075E+0000
      0.475635E+0000
      0.471148E+0000
      0.466613E+0000
      0.462031E+0000
      0.457402E+0000
      0.452726E+0000
      0.448002E+0000
      0.488784E+0000
      0.484438E+0000
      0.480045E+0000
      0.475606E+0000
      0.471120E+0000
      0.466587E+0000
      0.462007E+0000
      0.457379E+0000
      0.452705E+0000
      0.447982E+0000
      0.488755E+0000
      0.484409E+0000
      0.480017E+0000
      0.475579E+0000
      0.471094E+0000
      0.466562E+0000
      0.461983E+0000
      0.457357E+0000
      0.452684E+0000
      0.447963E+0000
      0.488729E+0000
      0.484383E+0000
      0.479991E+0000
      0.475554E+0000
      0.471069E+0000
      0.466538E+0000
      0.461961E+0000
      0.457336E+0000
      0.452664E+0000
      0.447944E+0000
      0.488704E+0000
      0.484359E+0000
      0.479967E+0000
      0.475530E+0000
      0.471046E+0000
      0.466516E+0000
      0.461939E+0000
      0.457315E+0000
      0.452644E+0000
      0.447925E+0000
      0.488682E+0000
      0.484336E+0000
      0.479945E+0000
      0.475508E+0000
      0.471024E+0000
      0.466495E+0000
      0.461919E+0000
      0.457296E+0000
      0.452625E+0000
      0.447908E+0000
</DataArray>
<DataArray Name="RHO" type="Float64" format="ascii" NumberOfComponents="1">
      0.117089E+0001
      0.117116E+0001
      0.117143E+0001
      0.117167E+0001
      0.117186E+0001
      0.117200E+0001
      0.117210E+0001
      0.117215E+0001
      0.117217E+0001
      0.117216E+0001
      0.117116E+0001
      0.117135E+0001
      0.117154E+0001
      0.117172E+0001
      0.117187E+0001
      0.117198E+0001
      0.117205E+0001
      0.117209E+0001
      0.117211E+0001
      0.117211E+0001
      0.117137E+0001
      0.117150E+0001
      0.117164E+0001
      0.117177E+0001
      0.117188E+0001
      0.117196E+0001
      0.117202E+0001
      0.117205E+0001
      0.117207E+0001
      0.117207E+0001
      0.117154E+0001
      0.117163E+0001
      0.117172E+0001
      0.117181E+0001
      0.117189E+0001
      0.117195E+0001
      0.117200E+0001
      0.117202E+0001
      0.117204E+0001
      0.117204E+0001
      0.117167E+0001
      0.117173E+0001
      0.117179E+0001
      0.117185E+0001
      0.117191E+0001
      0.117195E+0001
      0.117198E+0001
      0.117200E+0001
      0.117201E+0001
      0.117202E+0001
      0.117176E+0001
      0.117180E+0001
      0.117184E+0001
      0.117189E+0001
      0.117192E+0001
      0.117195E+0001
      0.117198E+0001
      0.117199E+0001
      0.117200E+0001
      0.117200E+0001
      0.117183E+0001
      0.117186E+0001