<?xml version="1.0"?>
<VTKFile type="StructuredGrid" version="0.1" byte_order="LittleEndian">
<StructuredGrid WholeExtent="          10          20          10          20           0           1">
<Piece Extent="          10          20          10          20           0           1">
<Points>
<DataArray NumberOfComponents="3" type="Float64" format="ascii">
    0.265033E-02    0.264236E-02    0.000000E+00
    0.293016E-02    0.264236E-02    0.000000E+00
    0.321278E-02    0.264236E-02    0.000000E+00
    0.349824E-02    0.264236E-02    0.000000E+00
    0.378654E-02    0.264236E-02    0.000000E+00
    0.407773E-02    0.264236E-02    0.000000E+00
    0.437183E-02    0.264236E-02    0.000000E+00
    0.466888E-02    0.264236E-02    0.000000E+00
    0.496889E-02    0.264236E-02    0.000000E+00
    0.527190E-02    0.264236E-02    0.000000E+00
    0.557795E-02    0.264236E-02    0.000000E+00
    0.265033E-02    0.287841E-02    0.000000E+00
    0.293016E-02    0.287841E-02    0.000000E+00
    0.321278E-02    0.287841E-02    0.000000E+00
    0.349824E-02    0.287841E-02    0.000000E+00
    0.378654E-02    0.287841E-02    0.000000E+00
    0.407773E-02    0.287841E-02    0.000000E+00
    0.437183E-02    0.287841E-02    0.000000E+00
    0.466888E-02    0.287841E-02    0.000000E+00
    0.496889E-02    0.287841E-02    0.000000E+00
    0.527190E-02    0.287841E-02    0.000000E+00
    0.557795E-02    0.287841E-02    0.000000E+00
    0.265033E-02    0.310974E-02    0.000000E+00
    0.293016E-02    0.310974E-02    0.000000E+00
    0.321278E-02    0.310974E-02    0.000000E+00
    0.349824E-02    0.310974E-02    0.000000E+00
    0.378654E-02    0.310974E-02    0.000000E+00
    0.407773E-02    0.310974E-02    0.000000E+00
    0.437183E-02    0.310974E-02    0.000000E+00
    0.466888E-02    0.310974E-02    0.000000E+00
    0.496889E-02    0.310974E-02    0.000000E+00
    0.527190E-02    0.310974E-02    0.000000E+00
    0.557795E-02    0.310974E-02    0.000000E+00
    0.265033E-02    0.333644E-02    0.000000E+00
    0.293016E-02    0.333644E-02    0.000000E+00
    0.321278E-02    0.333644E-02    0.000000E+00
    0.349824E-02    0.333644E-02    0.000000E+00
    0.378654E-02    0.333644E-02    0.000000E+00
    0.407773E-02    0.333644E-02    0.000000E+00
    0.437183E-02    0.333644E-02    0.000000E+00
    0.466888E-02    0.333644E-02    0.000000E+00
    0.496889E-02    0.333644E-02    0.000000E+00
    0.527190E-02    0.333644E-02    0.000000E+00
    0.557795E-02    0.333644E-02    0.000000E+00
    0.265033E-02    0.355861E-02    0.000000E+00
    0.293016E-02    0.355861E-02    0.000000E+00
    0.321278E-02    0.355861E-02    0.000000E+00
    0.349824E-02    0.355861E-02    0.000000E+00
    0.378654E-02    0.355861E-02    0.000000E+00
    0.407773E-02    0.355861E-02    0.000000E+00
    0.437183E-02    0.355861E-02    0.000000E+00
    0.466888E-02    0.355861E-02    0.000000E+00
    0.496889E-02    0.355861E-02    0.000000E+00
    0.527190E-02    0.355861E-02    0.000000E+00
    0.557795E-02    0.355861E-02    0.000000E+00
    0.265033E-02    0.377633E-02    0.000000E+00
    0.293016E-02    0.377633E-02    0.000000E+00
    0.321278E-02    0.377633E-02    0.000000E+00
    0.349824E-02    0.377633E-02    0.000000E+00
    0.378654E-02    0.377633E-02    0.000000E+00
    0.407773E-02    0.377633E-02    0.000000E+00
    0.437183E-02    0.377633E-02    0.000000E+00
    0.466888E-02    0.377633E-02    0.000000E+00
    0.496889E-02    0.377633E-02    0.000000E+00
    0.527190E-02    0.377633E-02    0.000000E+00
    0.557795E-02    0.377633E-02    0.000000E+00
    0.265033E-02    0.398970E-02    0.000000E+00
    0.293016E-02    0.398970E-02    0.000000E+00
    0.321278E-02    0.398970E-02    0.000000E+00
    0.349824E-02    0.398970E-02    0.000000E+00
    0.378654E-02    0.398970E-02    0.000000E+00
    0.407773E-02    0.398970E-02    0.000000E+00
    0.437183E-02    0.398970E-02    0.000000E+00
    0.466888E-02    0.398970E-02    0.000000E+00
    0.496889E-02    0.398970E-02    0.000000E+00
    0.527190E-02    0.398970E-02    0.000000E+00
    0.557795E-02    0.398970E-02    0.000000E+00
    0.265033E-02    0.419881E-02    0.000000E+00
    0.293016E-02    0.419881E-02    0.000000E+00
    0.321278E-02    0.419881E-02    0.000000E+00
    0.349824E-02    0.419881E-02    0.000000E+00
    0.378654E-02    0.419881E-02    0.000000E+00
    0.407773E-02    0.419881E-02    0.000000E+00
    0.437183E-02    0.419881E-02    0.000000E+00
    0.466888E-02    0.419881E-02    0.000000E+00
    0.496889E-02    0.419881E-02    0.000000E+00
    0.527190E-02    0.419881E-02    0.000000E+00
    0.557795E-02    0.419881E-02    0.000000E+00
    0.265033E-02    0.440373E-02    0.000000E+00
    0.293016E-02    0.440373E-02    0.000000E+00
    0.321278E-02    0.440373E-02    0.000000E+00
    0.349824E-02    0.440373E-02    0.000000E+00
    0.378654E-02    0.440373E-02    0.000000E+00
    0.407773E-02    0.440373E-02    0.000000E+00
    0.437183E-02    0.440373E-02    0.000000E+00
    0.466888E-02    0.440373E-02    0.000000E+00
    0.496889E-02    0.440373E-02    0.000000E+00
    0.527190E-02    0.440373E-02    0.000000E+00
    0.557795E-02    0.440373E-02    0.000000E+00
    0.265033E-02    0.460455E-02    0.000000E+00
    0.293016E-02    0.460455E-02    0.000000E+00
    0.321278E-02    0.460455E-02    0.000000E+00
    0.349824E-02    0.460455E-02    0.000000E+00
    0.378654E-02    0.460455E-02    0.000000E+00
    0.407773E-02    0.460455E-02    0.000000E+00
    0.437183E-02    0.460455E-02    0.000000E+00
    0.466888E-02    0.460455E-02    0.000000E+00
    0.496889E-02    0.460455E-02    0.000000E+00
    0.527190E-02    0.460455E-02    0.000000E+00
    0.557795E-02    0.460455E-02    0.000000E+00
    0.265033E-02    0.480136E-02    0.000000E+00
    0.293016E-02    0.480136E-02    0.000000E+00
    0.321278E-02    0.480136E-02    0.000000E+00
    0.349824E-02    0.480136E-02    0.000000E+00
    0.378654E-02    0.480136E-02    0.000000E+00
    0.407773E-02    0.480136E-02    0.000000E+00
    0.437183E-02    0.480136E-02    0.000000E+00
    0.466888E-02    0.480136E-02    0.000000E+00
    0.496889E-02    0.480136E-02    0.000000E+00
    0.527190E-02    0.480136E-02    0.000000E+00
    0.557795E-02    0.480136E-02    0.000000E+00
    0.265033E-02    0.264236E-02    0.160000E-02
    0.293016E-02    0.264236E-02    0.160000E-02
    0.321278E-02    0.264236E-02    0.160000E-02
    0.349824E-02    0.264236E-02    0.160000E-02
    0.378654E-02    0.264236E-02    0.160000E-02
    0.407773E-02    0.264236E-02    0.160000E-02
    0.437183E-02    0.264236E-02    0.160000E-02
    0.466888E-02    0.264236E-02    0.160000E-02
    0.496889E-02    0.264236E-02    0.160000E-02
    0.527190E-02    0.264236E-02    0.160000E-02
    0.557795E-02    0.264236E-02    0.160000E-02
    0.265033E-02    0.287841E-02    0.160000E-02
    0.293016E-02    0.287841E-02    0.160000E-02
    0.321278E-02    0.287841E-02    0.160000E-02
    0.349824E-02    0.287841E-02    0.160000E-02
    0.378654E-02    0.287841E-02    0.160000E-02
    0.407773E-02    0.287841E-02    0.160000E-02
    0.437183E-02    0.287841E-02    0.160000E-02
    0.466888E-02    0.287841E-02    0.160000E-02
    0.496889E-02    0.287841E-02    0.160000E-02
    0.527190E-02    0.287841E-02    0.160000E-02
    0.557795E-02    0.287841E-02    0.160000E-02
    0.265033E-02    0.310974E-02    0.160000E-02
    0.293016E-02    0.310974E-02    0.160000E-02
    0.321278E-02    0.310974E-02    0.160000E-02
    0.349824E-02    0.310974E-02    0.160000E-02
    0.378654E-02    0.310974E-02    0.160000E-02
    0.407773E-02    0.310974E-02    0.160000E-02
    0.437183E-02    0.310974E-02    0.160000E-02
    0.466888E-02    0.310974E-02    0.160000E-02
    0.496889E-02    0.310974E-02    0.160000E-02
    0.527190E-02    0.310974E-02    0.160000E-02
    0.557795E-02    0.310974E-02    0.160000E-02
    0.265033E-02    0.333644E-02    0.160000E-02
    0.293016E-02    0.333644E-02    0.160000E-02
    0.321278E-02    0.333644E-02    0.160000E-02
    0.349824E-02    0.333644E-02    0.160000E-02
    0.378654E-02    0.333644E-02    0.160000E-02
    0.407773E-02    0.333644E-02    0.160000E-02
    0.437183E-02    0.333644E-02    0.160000E-02
    0.466888E-02    0.333644E-02    0.160000E-02
    0.496889E-02    0.333644E-02    0.160000E-02
    0.527190E-02    0.333644E-02    0.160000E-02
    0.557795E-02    0.333644E-02    0.160000E-02
    0.265033E-02    0.355861E-02    0.160000E-02
    0.293016E-02    0.355861E-02    0.160000E-02
    0.321278E-02    0.355861E-02    0.160000E-02
    0.349824E-02    0.355861E-02    0.160000E-02
    0.378654E-02    0.355861E-02    0.160000E-02
    0.407773E-02    0.355861E-02    0.160000E-02
    0.437183E-02    0.355861E-02    0.160000E-02
    0.466888E-02    0.355861E-02    0.160000E-02
    0.496889E-02    0.355861E-02    0.160000E-02
    0.527190E-02    0.355861E-02    0.160000E-02
    0.557795E-02    0.355861E-02    0.160000E-02
    0.265033E-02    0.377633E-02    0.160000E-02
    0.293016E-02    0.377633E-02    0.160000E-02
    0.321278E-02    0.377633E-02    0.160000E-02
    0.349824E-02    0.377633E-02    0.160000E-02
    0.378654E-02    0.377633E-02    0.160000E-02
    0.407773E-02    0.377633E-02    0.160000E-02
    0.437183E-02    0.377633E-02    0.160000E-02
    0.466888E-02    0.377633E-02    0.160000E-02
    0.496889E-02    0.377633E-02    0.160000E-02
    0.527190E-02    0.377633E-02    0.160000E-02
    0.557795E-02    0.377633E-02    0.160000E-02
    0.265033E-02    0.398970E-02    0.160000E-02
    0.293016E-02    0.398970E-02    0.160000E-02
    0.321278E-02    0.398970E-02    0.160000E-02
    0.349824E-02    0.398970E-02    0.160000E-02
    0.378654E-02    0.398970E-02    0.160000E-02
    0.407773E-02    0.398970E-02    0.160000E-02
    0.437183E-02    0.398970E-02    0.160000E-02
    0.466888E-02    0.398970E-02    0.160000E-02
    0.496889E-02    0.398970E-02    0.160000E-02
    0.527190E-02    0.398970E-02    0.160000E-02
    0.557795E-02    0.398970E-02    0.160000E-02
    0.265033E-02    0.419881E-02    0.160000E-02
    0.293016E-02    0.419881E-02    0.160000E-02
    0.321278E-02    0.419881E-02    0.160000E-02
    0.349824E-02    0.419881E-02    0.160000E-02
    0.378654E-02    0.419881E-02    0.160000E-02
    0.407773E-02    0.419881E-02    0.160000E-02
    0.437183E-02    0.419881E-02    0.160000E-02
    0.466888E-02    0.419881E-02    0.160000E-02
    0.496889E-02    0.419881E-02    0.160000E-02
    0.527190E-02    0.419881E-02    0.160000E-02
    0.557795E-02    0.419881E-02    0.160000E-02
    0.265033E-02    0.440373E-02    0.160000E-02
    0.293016E-02    0.440373E-02    0.160000E-02
    0.321278E-02    0.440373E-02    0.160000E-02
    0.349824E-02    0.440373E-02    0.160000E-02
    0.378654E-02    0.440373E-02    0.160000E-02
    0.407773E-02    0.440373E-02    0.160000E-02
    0.437183E-02    0.440373E-02    0.160000E-02
    0.466888E-02    0.440373E-02    0.160000E-02
    0.496889E-02    0.440373E-02    0.160000E-02
    0.527190E-02    0.440373E-02    0.160000E-02
    0.557795E-02    0.440373E-02    0.160000E-02
    0.265033E-02    0.460455E-02    0.160000E-02
    0.293016E-02    0.460455E-02    0.160000E-02
    0.321278E-02    0.460455E-02    0.160000E-02
    0.349824E-02    0.460455E-02    0.160000E-02
    0.378654E-02    0.460455E-02    0.160000E-02
    0.407773E-02    0.460455E-02    0.160000E-02
    0.437183E-02    0.460455E-02    0.160000E-02
    0.466888E-02    0.460455E-02    0.160000E-02
    0.496889E-02    0.460455E-02    0.160000E-02
    0.527190E-02    0.460455E-02    0.160000E-02
    0.557795E-02    0.460455E-02    0.160000E-02
    0.265033E-02    0.480136E-02    0.160000E-02
    0.293016E-02    0.480136E-02    0.160000E-02
    0.321278E-02    0.480136E-02    0.160000E-02
    0.349824E-02    0.480136E-02    0.160000E-02
    0.378654E-02    0.480136E-02    0.160000E-02
    0.407773E-02    0.480136E-02    0.160000E-02
    0.437183E-02    0.480136E-02    0.160000E-02
    0.466888E-02    0.480136E-02    0.160000E-02
    0.496889E-02    0.480136E-02    0.160000E-02
    0.527190E-02    0.480136E-02    0.160000E-02
    0.557795E-02    0.480136E-02    0.160000E-02
</DataArray>
</Points>
<PointData>
<DataArray Name="Velocity" type="Float64" format="ascii" NumberOfComponents="3">
    0.647401E-01   -0.240000E-01    0.000000E+00
    0.694691E-01   -0.249198E-01    0.000000E+00
    0.742943E-01   -0.256934E-01    0.000000E+00
    0.791508E-01   -0.261859E-01    0.000000E+00
    0.839863E-01   -0.264244E-01    0.000000E+00
    0.887611E-01   -0.264410E-01    0.000000E+00
    0.934468E-01   -0.262706E-01    0.000000E+00
    0.980252E-01   -0.259476E-01    0.000000E+00
    0.102486E+00   -0.255053E-01    0.000000E+00
    0.106828E+00   -0.249737E-01    0.000000E+00
    0.111052E+00   -0.243794E-01    0.000000E+00
    0.644794E-01   -0.259016E-01    0.000000E+00
    0.689685E-01   -0.267942E-01    0.000000E+00
    0.735093E-01   -0.275051E-01    0.000000E+00
    0.780438E-01   -0.279102E-01    0.000000E+00
    0.825276E-01   -0.280461E-01    0.000000E+00
    0.869291E-01   -0.279531E-01    0.000000E+00
    0.912278E-01   -0.276724E-01    0.000000E+00
    0.954125E-01   -0.272436E-01    0.000000E+00
    0.994796E-01   -0.267033E-01    0.000000E+00
    0.103431E+00   -0.260839E-01    0.000000E+00
    0.107275E+00   -0.254130E-01    0.000000E+00
    0.642875E-01   -0.275118E-01    0.000000E+00
    0.684277E-01   -0.283488E-01    0.000000E+00
    0.725750E-01   -0.289726E-01    0.000000E+00
    0.766818E-01   -0.292753E-01    0.000000E+00
    0.807141E-01   -0.293021E-01    0.000000E+00
    0.846506E-01   -0.291006E-01    0.000000E+00
    0.884796E-01   -0.287169E-01    0.000000E+00
    0.921976E-01   -0.281942E-01    0.000000E+00
    0.958068E-01   -0.275710E-01    0.000000E+00
    0.993141E-01   -0.268807E-01    0.000000E+00
    0.102730E+00   -0.261517E-01    0.000000E+00
    0.637646E-01   -0.288796E-01    0.000000E+00
    0.675890E-01   -0.296341E-01    0.000000E+00
    0.713787E-01   -0.301475E-01    0.000000E+00
    0.750962E-01   -0.303327E-01    0.000000E+00
    0.787174E-01   -0.302435E-01    0.000000E+00
    0.822304E-01   -0.299332E-01    0.000000E+00
    0.856316E-01   -0.294519E-01    0.000000E+00
    0.889242E-01   -0.288448E-01    0.000000E+00
    0.921161E-01   -0.281517E-01    0.000000E+00
    0.952184E-01   -0.274060E-01    0.000000E+00
    0.982448E-01   -0.266348E-01    0.000000E+00
    0.630576E-01   -0.300282E-01    0.000000E+00
    0.665863E-01   -0.306759E-01    0.000000E+00
    0.700422E-01   -0.310593E-01    0.000000E+00
    0.733980E-01   -0.311161E-01    0.000000E+00
    0.766399E-01   -0.309073E-01    0.000000E+00
    0.797644E-01   -0.304906E-01    0.000000E+00
    0.827755E-01   -0.299192E-01    0.000000E+00
    0.856824E-01   -0.292392E-01    0.000000E+00
    0.884980E-01   -0.284896E-01    0.000000E+00
    0.912374E-01   -0.277026E-01    0.000000E+00
    0.939162E-01   -0.269041E-01    0.000000E+00
    0.623109E-01   -0.309700E-01    0.000000E+00
    0.655587E-01   -0.314903E-01    0.000000E+00
    0.686990E-01   -0.317293E-01    0.000000E+00
    0.717156E-01   -0.316517E-01    0.000000E+00
    0.746048E-01   -0.313245E-01    0.000000E+00
    0.773714E-01   -0.308088E-01    0.000000E+00
    0.800265E-01   -0.301581E-01    0.000000E+00
    0.825852E-01   -0.294178E-01    0.000000E+00
    0.850642E-01   -0.286257E-01    0.000000E+00
    0.874809E-01   -0.278119E-01    0.000000E+00
    0.898524E-01   -0.270004E-01    0.000000E+00
    0.616631E-01   -0.317131E-01    0.000000E+00
    0.646397E-01   -0.320899E-01    0.000000E+00
    0.674773E-01   -0.321756E-01    0.000000E+00
    0.701719E-01   -0.319637E-01    0.000000E+00
    0.727302E-01   -0.315249E-01    0.000000E+00
    0.751657E-01   -0.309208E-01    0.000000E+00
    0.774960E-01   -0.302041E-01    0.000000E+00
    0.797405E-01   -0.294182E-01    0.000000E+00
    0.819186E-01   -0.285983E-01    0.000000E+00
    0.840489E-01   -0.277722E-01    0.000000E+00
    0.861489E-01   -0.269609E-01    0.000000E+00
    0.612412E-01   -0.322621E-01    0.000000E+00
    0.639476E-01   -0.324847E-01    0.000000E+00
    0.664879E-01   -0.324151E-01    0.000000E+00
    0.688715E-01   -0.320750E-01    0.000000E+00
    0.711161E-01   -0.315357E-01    0.000000E+00
    0.732430E-01   -0.308574E-01    0.000000E+00
    0.752751E-01   -0.300902E-01    0.000000E+00
    0.772346E-01   -0.292742E-01    0.000000E+00
    0.791421E-01   -0.284414E-01    0.000000E+00
    0.810167E-01   -0.276163E-01    0.000000E+00
    0.828753E-01   -0.268172E-01    0.000000E+00
    0.611520E-01   -0.326177E-01    0.000000E+00
    0.635769E-01   -0.326821E-01    0.000000E+00
    0.658160E-01   -0.324624E-01    0.000000E+00
    0.678932E-01   -0.320059E-01    0.000000E+00
    0.698358E-01   -0.313815E-01    0.000000E+00
    0.716715E-01   -0.306460E-01    0.000000E+00
    0.734264E-01   -0.298450E-01    0.000000E+00
    0.751243E-01   -0.290148E-01    0.000000E+00
    0.767861E-01   -0.281831E-01    0.000000E+00
    0.784297E-01   -0.273711E-01    0.000000E+00
    0.800708E-01   -0.265942E-01    0.000000E+00
    0.614708E-01   -0.327755E-01    0.000000E+00
    0.635897E-01   -0.326861E-01    0.000000E+00
    0.655154E-01   -0.323292E-01    0.000000E+00
    0.672843E-01   -0.317737E-01    0.000000E+00
    0.689312E-01   -0.310834E-01    0.000000E+00
    0.704878E-01   -0.303095E-01    0.000000E+00
    0.719817E-01   -0.294924E-01    0.000000E+00
    0.734364E-01   -0.286631E-01    0.000000E+00
    0.748715E-01   -0.278454E-01    0.000000E+00
    0.763034E-01   -0.270571E-01    0.000000E+00
    0.777455E-01   -0.263106E-01    0.000000E+00
    0.622327E-01   -0.327266E-01    0.000000E+00
    0.640109E-01   -0.324972E-01    0.000000E+00
    0.656044E-01   -0.320243E-01    0.000000E+00
    0.670587E-01   -0.313927E-01    0.000000E+00
    0.684125E-01   -0.306587E-01    0.000000E+00
    0.696985E-01   -0.298666E-01    0.000000E+00
    0.709436E-01   -0.290506E-01    0.000000E+00
    0.721693E-01   -0.282367E-01    0.000000E+00
    0.733928E-01   -0.274447E-01    0.000000E+00
    0.746277E-01   -0.266889E-01    0.000000E+00
    0.758850E-01   -0.259796E-01    0.000000E+00
    0.648292E-01   -0.238459E-01    0.584055E-17
    0.695757E-01   -0.249198E-01    0.610358E-17
    0.744257E-01   -0.256934E-01    0.629306E-17
    0.793136E-01   -0.261859E-01    0.641369E-17
    0.841864E-01   -0.264244E-01    0.647210E-17
    0.890035E-01   -0.264410E-01    0.647619E-17
    0.937354E-01   -0.262706E-01    0.643443E-17
    0.983628E-01   -0.259476E-01    0.635533E-17
    0.102875E+00   -0.255053E-01    0.624699E-17
    0.107268E+00   -0.249737E-01    0.611678E-17
    0.111544E+00   -0.243794E-01    0.597123E-17
    0.644794E-01   -0.257486E-01    0.630658E-17
    0.689685E-01   -0.267942E-01    0.656268E-17
    0.735093E-01   -0.275051E-01    0.673680E-17
    0.780438E-01   -0.279102E-01    0.683603E-17
    0.825276E-01   -0.280461E-01    0.686931E-17
    0.869291E-01   -0.279531E-01    0.684653E-17
    0.912278E-01   -0.276724E-01    0.677778E-17
    0.954125E-01   -0.272436E-01    0.667276E-17
    0.994796E-01   -0.267033E-01    0.654043E-17
    0.103431E+00   -0.260839E-01    0.638872E-17
    0.107275E+00   -0.254130E-01    0.622440E-17
    0.642875E-01   -0.273645E-01    0.670237E-17
    0.684277E-01   -0.283488E-01    0.694345E-17
    0.725750E-01   -0.289726E-01    0.709624E-17
    0.766818E-01   -0.292753E-01    0.717037E-17
    0.807141E-01   -0.293021E-01    0.717695E-17
    0.846506E-01   -0.291006E-01    0.712758E-17
    0.884796E-01   -0.287169E-01    0.703362E-17
    0.921976E-01   -0.281942E-01    0.690560E-17
    0.958068E-01   -0.275710E-01    0.675294E-17
    0.993141E-01   -0.268807E-01    0.658386E-17
    0.102730E+00   -0.261517E-01    0.640531E-17
    0.637646E-01   -0.287425E-01    0.703989E-17
    0.675890E-01   -0.296341E-01    0.725826E-17
    0.713787E-01   -0.301475E-01    0.738401E-17
    0.750962E-01   -0.303327E-01    0.742938E-17
    0.787174E-01   -0.302435E-01    0.740753E-17
    0.822304E-01   -0.299332E-01    0.733153E-17
    0.856316E-01   -0.294519E-01    0.721363E-17
    0.889242E-01   -0.288448E-01    0.706493E-17
    0.921161E-01   -0.281517E-01    0.689519E-17
    0.952184E-01   -0.274060E-01    0.671254E-17
    0.982448E-01   -0.266348E-01    0.652365E-17
    0.630576E-01   -0.299054E-01    0.732471E-17
    0.665863E-01   -0.306759E-01    0.751342E-17
    0.700422E-01   -0.310593E-01    0.760734E-17
    0.733980E-01   -0.311161E-01    0.762125E-17
    0.766399E-01   -0.309073E-01    0.757010E-17
    0.797644E-01   -0.304906E-01    0.746805E-17
    0.827755E-01   -0.299192E-01    0.732809E-17
    0.856824E-01   -0.292392E-01    0.716154E-17
    0.884980E-01   -0.284896E-01    0.697794E-17
    0.912374E-01   -0.277026E-01    0.678518E-17
    0.939162E-01   -0.269041E-01    0.658961E-17
    0.623109E-01   -0.308652E-01    0.755979E-17
    0.655587E-01   -0.314903E-01    0.771290E-17
    0.686990E-01   -0.317293E-01    0.777144E-17
    0.717156E-01   -0.316517E-01    0.775243E-17
    0.746048E-01   -0.313245E-01    0.767228E-17
    0.773714E-01   -0.308088E-01    0.754597E-17
    0.800265E-01   -0.301581E-01    0.738660E-17
    0.825852E-01   -0.294178E-01    0.720529E-17
    0.850642E-01   -0.286257E-01    0.701127E-17
    0.874809E-01   -0.278119E-01    0.681196E-17
    0.898524E-01   -0.270004E-01    0.661320E-17
    0.616631E-01   -0.316293E-01    0.774695E-17
    0.646397E-01   -0.320899E-01    0.785976E-17
    0.674773E-01   -0.321756E-01    0.788076E-17
    0.701719E-01   -0.319637E-01    0.782885E-17
    0.727302E-01   -0.315249E-01    0.772136E-17
    0.751657E-01   -0.309208E-01    0.757342E-17
    0.774960E-01   -0.302041E-01    0.739787E-17
    0.797405E-01   -0.294182E-01    0.720538E-17
    0.819186E-01   -0.285983E-01    0.700457E-17
    0.840489E-01   -0.277722E-01    0.680222E-17
    0.861489E-01   -0.269609E-01    0.660352E-17
    0.612412E-01   -0.322019E-01    0.788718E-17
    0.639476E-01   -0.324847E-01    0.795645E-17
    0.664879E-01   -0.324151E-01    0.793941E-17
    0.688715E-01   -0.320750E-01    0.785611E-17
    0.711161E-01   -0.315357E-01    0.772401E-17
    0.732430E-01   -0.308574E-01    0.755789E-17
    0.752751E-01   -0.300902E-01    0.736997E-17
    0.772346E-01   -0.292742E-01    0.717012E-17
    0.791421E-01   -0.284414E-01    0.696613E-17
    0.810167E-01   -0.276163E-01    0.676403E-17
    0.828753E-01   -0.268172E-01    0.656831E-17
    0.611520E-01   -0.325824E-01    0.798039E-17
    0.635769E-01   -0.326821E-01    0.800480E-17
    0.658160E-01   -0.324624E-01    0.795101E-17
    0.678932E-01   -0.320059E-01    0.783918E-17
    0.698358E-01   -0.313815E-01    0.768624E-17
    0.716715E-01   -0.306460E-01    0.750609E-17
    0.734264E-01   -0.298450E-01    0.730993E-17
    0.751243E-01   -0.290148E-01    0.710657E-17
    0.767861E-01   -0.281831E-01    0.690287E-17
    0.784297E-01   -0.273711E-01    0.670398E-17
    0.800708E-01   -0.265942E-01    0.651370E-17
    0.614708E-01   -0.327655E-01    0.802523E-17
    0.635897E-01   -0.326861E-01    0.800578E-17
    0.655154E-01   -0.323292E-01    0.791838E-17
    0.672843E-01   -0.317737E-01    0.778230E-17
    0.689312E-01   -0.310834E-01    0.761323E-17
    0.704878E-01   -0.303095E-01    0.742369E-17
    0.719817E-01   -0.294924E-01    0.722354E-17
    0.734364E-01   -0.286631E-01    0.702043E-17
    0.748715E-01   -0.278454E-01    0.682016E-17
    0.763034E-01   -0.270571E-01    0.662707E-17
    0.777455E-01   -0.263106E-01    0.644425E-17
    0.622327E-01   -0.327403E-01    0.801906E-17
    0.640109E-01   -0.324972E-01    0.795951E-17
    0.656044E-01   -0.320243E-01    0.784368E-17
    0.670587E-01   -0.313927E-01    0.768899E-17
    0.684125E-01   -0.306587E-01    0.750923E-17
    0.696985E-01   -0.298666E-01    0.731522E-17
    0.709436E-01   -0.290506E-01    0.711534E-17
    0.721693E-01   -0.282367E-01    0.691599E-17
    0.733928E-01   -0.274447E-01    0.672200E-17
    0.746277E-01   -0.266889E-01    0.653689E-17
    0.758850E-01   -0.259796E-01    0.636317E-17
</DataArray>
</PointData>
<CellData>
<DataArray Name="DP" type="Float64" format="ascii" NumberOfComponents="1">
      0.000000E+0000
      0.000000E+0000
      0.000000E+0000
      0.000000E+0000
      0.000000E+0000
      0.000000E+0000
      0.000000E+0000
      0.000000E+0000
      0.000000E+0000
      0.000000E+0000
      0.000000E+0000
      0.000000E+0000
      0.000000E+0000
      0.000000E+0000
      0.000000E+0000
      0.000000E+0000
      0.000000E+0000
      0.000000E+0000
      0.000000E+0000
      0.000000E+0000
      0.000000E+0000
      0.000000E+0000
      0.000000E+0000
      0.000000E+0000
      0.000000E+0000
      0.000000E+0000
      0.000000E+0000
      0.000000E+0000
      0.000000E+0000
      0.000000E+0000
      0.000000E+0000
      0.000000E+0000
      0.000000E+0000
      0.000000E+0000
      0.000000E+0000
      0.000000E+0000
      0.000000E+0000
      0.000000E+0000
      0.000000E+0000
      0.000000E+0000
      0.000000E+0000
      0.000000E+0000
      0.000000E+0000
      0.000000E+0000
      0.000000E+0000
      0.000000E+0000
      0.000000E+0000
      0.000000E+0000
      0.000000E+0000
      0.000000E+0000
      0.000000E+0000
      0.000000E+0000
      0.000000E+0000
      0.000000E+0000
      0.000000E+0000
      0.000000E+0000
      0.000000E+0000
      0.000000E+0000
      0.000000E+0000
      0.000000E+0000
      0.000000E+0000
      0.000000E+0000
      0.000000E+0000
      0.000000E+0000
      0.000000E+0000
      0.000000E+0000
      0.000000E+0000
      0.000000E+0000
      0.000000E+0000
      0.000000E+0000
      0.000000E+0000
      0.000000E+0000
      0.000000E+0000
      0.000000E+0000
      0.000000E+0000
      0.000000E+0000
      0.000000E+0000
      0.000000E+0000
      0.000000E+0000
      0.000000E+0000
      0.000000E+0000
      0.000000E+0000
      0.000000E+0000
      0.000000E+0000
      0.000000E+0000
      0.000000E+0000
      0.000000E+0000
      0.000000E+0000
      0.000000E+0000
      0.000000E+0000
      0.000000E+0000
      0.000000E+0000
      0.000000E+0000
      0.000000E+0000
      0.000000E+0000
      0.000000E+0000
      0.000000E+0000
      0.000000E+0000
      0.000000E+0000
      0.000000E+0000
</DataArray>
<DataArray Name="P" type="Float64" format="ascii" NumberOfComponents="1">
      0.597978E+0000
      0.595195E+0000
      0.592334E+0000
      0.589396E+0000
      0.586381E+0000
      0.583290E+0000
      0.580126E+0000
      0.576891E+0000
      0.573586E+0000
      0.570213E+0000
      0.598013E+0000
      0.595216E+0000
      0.592342E+0000
      0.589391E+0000
      0.586364E+0000
      0.583263E+0000
      0.580089E+0000
      0.576845E+0000
      0.573533E+0000
      0.570155E+0000
      0.598048E+0000
      0.595237E+0000
      0.592350E+0000
      0.589386E+0000
      0.586348E+0000
      0.583236E+0000
      0.580053E+0000
      0.576801E+0000
      0.573482E+0000
      0.570098E+0000
      0.598083E+0000
      0.595259E+0000
      0.592358E+0000
      0.589382E+0000
      0.586331E+0000
      0.583209E+0000
      0.580017E+0000
      0.576757E+0000
      0.573433E+0000
      0.570045E+0000
      0.598118E+0000
      0.595280E+0000
      0.592366E+0000
      0.589377E+0000
      0.586315E+0000
      0.583183E+0000
      0.579982E+0000
      0.576716E+0000
      0.573386E+0000
      0.569994E+0000
      0.598152E+0000
      0.595300E+0000
      0.592372E+0000
      0.589371E+0000
      0.586299E+0000
      0.583157E+0000
      0.579949E+0000
      0.576676E+0000
      0.573341E+0000
      0.569945E+0000
      0.598185E+0000
      0.595319E+0000
      0.592378E+0000
      0.589365E+0000
      0.586282E+0000
      0.583132E+0000
      0.579916E+0000
      0.576637E+0000
      0.573298E+0000
      0.569899E+0000
      0.598217E+0000
      0.595336E+0000
      0.592382E+0000
      0.589357E+0000
      0.586265E+0000
      0.583106E+0000
      0.579884E+0000
      0.576601E+0000
      0.573257E+0000
      0.569855E+0000
      0.598246E+0000
      0.595351E+0000
      0.592385E+0000
      0.589349E+0000
      0.586248E+0000
      0.583082E+0000
      0.579854E+0000
      0.576566E+0000
      0.573218E+0000
      0.569814E+0000
      0.598274E+0000
      0.595365E+0000
      0.592386E+0000
      0.589341E+0000
      0.586231E+0000
      0.583058E+0000
      0.579825E+0000
      0.576533E+0000
      0.573182E+0000
      0.569776E+0000
</DataArray>
<DataArray Name="RHO" type="Float64" format="ascii" NumberOfComponents="1">
      0.892213E+0000
      0.897611E+0000
      0.903412E+0000
      0.909515E+0000
      0.915811E+0000
      0.922198E+0000
      0.928580E+0000
      0.934875E+0000
      0.941013E+0000
      0.946941E+0000
      0.899913E+0000
      0.906615E+0000
      0.913697E+0000
      0.921021E+0000
      0.928451E+0000
      0.935863E+0000
      0.943153E+0000
      0.950237E+0000
      0.957044E+0000
      0.963529E+0000
      0.909457E+0000
      0.917568E+0000
      0.925975E+0000
      0.934505E+0000
      0.943002E+0000
      0.951332E+0000
      0.959391E+0000
      0.967104E+0000
      0.974446E+0000
      0.981383E+0000
      0.921052E+0000
      0.930587E+0000
      0.940260E+0000
      0.949876E+0000
      0.959276E+0000
      0.968322E+0000
      0.976969E+0000
      0.985174E+0000
      0.992888E+0000
      0.100008E+0001
      0.934815E+0000
      0.945664E+0000
      0.956422E+0000
      0.966894E+0000
      0.976935E+0000
      0.986513E+0000
      0.995553E+0000
      0.100401E+0001
      0.101185E+0001
      0.101907E+0001
      0.950724E+0000
      0.962637E+0000
      0.974175E+0000
      0.985200E+0000
      0.995666E+0000
      0.100549E+0001
      0.101462E+0001
      0.102305E+0001
      0.103076E+0001
      0.103778E+0001
      0.968581E+0000
      0.981165E+0000