<?xml version="1.0"?>
<VTKFile type="StructuredGrid" version="0.1" byte_order="LittleEndian">
<StructuredGrid WholeExtent="         130         140          10          20           0           1">
<Piece Extent="         130         140          10          20           0           1">
<Points>
<DataArray NumberOfComponents="3" type="Float64" format="ascii">
    0.670215E-01    0.264236E-02    0.000000E+00
    0.679450E-01    0.264236E-02    0.000000E+00
    0.688778E-01    0.264236E-02    0.000000E+00
    0.698199E-01    0.264236E-02    0.000000E+00
    0.707714E-01    0.264236E-02    0.000000E+00
    0.717325E-01    0.264236E-02    0.000000E+00
    0.727031E-01    0.264236E-02    0.000000E+00
    0.736835E-01    0.264236E-02    0.000000E+00
    0.746736E-01    0.264236E-02    0.000000E+00
    0.756737E-01    0.264236E-02    0.000000E+00
    0.766837E-01    0.264236E-02    0.000000E+00
    0.670215E-01    0.287841E-02    0.000000E+00
    0.679450E-01    0.287841E-02    0.000000E+00
    0.688778E-01    0.287841E-02    0.000000E+00
    0.698199E-01    0.287841E-02    0.000000E+00
    0.707714E-01    0.287841E-02    0.000000E+00
    0.717325E-01    0.287841E-02    0.000000E+00
    0.727031E-01    0.287841E-02    0.000000E+00
    0.736835E-01    0.287841E-02    0.000000E+00
    0.746736E-01    0.287841E-02    0.000000E+00
    0.756737E-01    0.287841E-02    0.000000E+00
    0.766837E-01    0.287841E-02    0.000000E+00
    0.670215E-01    0.310974E-02    0.000000E+00
    0.679450E-01    0.310974E-02    0.000000E+00
    0.688778E-01    0.310974E-02    0.000000E+00
    0.698199E-01    0.310974E-02    0.000000E+00
    0.707714E-01    0.310974E-02    0.000000E+00
    0.717325E-01    0.310974E-02    0.000000E+00
    0.727031E-01    0.310974E-02    0.000000E+00
    0.736835E-01    0.310974E-02    0.000000E+00
    0.746736E-01    0.310974E-02    0.000000E+00
    0.756737E-01    0.310974E-02    0.000000E+00
    0.766837E-01    0.310974E-02    0.000000E+00
    0.670215E-01    0.333644E-02    0.000000E+00
    0.679450E-01    0.333644E-02    0.000000E+00
    0.688778E-01    0.333644E-02    0.000000E+00
    0.698199E-01    0.333644E-02    0.000000E+00
    0.707714E-01    0.333644E-02    0.000000E+00
    0.717325E-01    0.333644E-02    0.000000E+00
    0.727031E-01    0.333644E-02    0.000000E+00
    0.736835E-01    0.333644E-02    0.000000E+00
    0.746736E-01    0.333644E-02    0.000000E+00
    0.756737E-01    0.333644E-02    0.000000E+00
    0.766837E-01    0.333644E-02    0.000000E+00
    0.670215E-01    0.355861E-02    0.000000E+00
    0.679450E-01    0.355861E-02    0.000000E+00
    0.688778E-01    0.355861E-02    0.000000E+00
    0.698199E-01    0.355861E-02    0.000000E+00
    0.707714E-01    0.355861E-02    0.000000E+00
    0.717325E-01    0.355861E-02    0.000000E+00
    0.727031E-01    0.355861E-02    0.000000E+00
    0.736835E-01    0.355861E-02    0.000000E+00
    0.746736E-01    0.355861E-02    0.000000E+00
    0.756737E-01    0.355861E-02    0.000000E+00
    0.766837E-01    0.355861E-02    0.000000E+00
    0.670215E-01    0.377633E-02    0.000000E+00
    0.679450E-01    0.377633E-02    0.000000E+00
    0.688778E-01    0.377633E-02    0.000000E+00
    0.698199E-01    0.377633E-02    0.000000E+00
    0.707714E-01    0.377633E-02    0.000000E+00
    0.717325E-01    0.377633E-02    0.000000E+00
    0.727031E-01    0.377633E-02    0.000000E+00
    0.736835E-01    0.377633E-02    0.000000E+00
    0.746736E-01    0.377633E-02    0.000000E+00
    0.756737E-01    0.377633E-02    0.000000E+00
    0.766837E-01    0.377633E-02    0.000000E+00
    0.670215E-01    0.398970E-02    0.000000E+00
    0.679450E-01    0.398970E-02    0.000000E+00
    0.688778E-01    0.398970E-02    0.000000E+00
    0.698199E-01    0.398970E-02    0.000000E+00
    0.707714E-01    0.398970E-02    0.000000E+00
    0.717325E-01    0.398970E-02    0.000000E+00
    0.727031E-01    0.398970E-02    0.000000E+00
    0.736835E-01    0.398970E-02    0.000000E+00
    0.746736E-01    0.398970E-02    0.000000E+00
    0.756737E-01    0.398970E-02    0.000000E+00
    0.766837E-01    0.398970E-02    0.000000E+00
    0.670215E-01    0.419881E-02    0.000000E+00
    0.679450E-01    0.419881E-02    0.000000E+00
    0.688778E-01    0.419881E-02    0.000000E+00
    0.698199E-01    0.419881E-02    0.000000E+00
    0.707714E-01    0.419881E-02    0.000000E+00
    0.717325E-01    0.419881E-02    0.000000E+00
    0.727031E-01    0.419881E-02    0.000000E+00
    0.736835E-01    0.419881E-02    0.000000E+00
    0.746736E-01    0.419881E-02    0.000000E+00
    0.756737E-01    0.419881E-02    0.000000E+00
    0.766837E-01    0.419881E-02    0.000000E+00
    0.670215E-01    0.440373E-02    0.000000E+00
    0.679450E-01    0.440373E-02    0.000000E+00
    0.688778E-01    0.440373E-02    0.000000E+00
    0.698199E-01    0.440373E-02    0.000000E+00
    0.707714E-01    0.440373E-02    0.000000E+00
    0.717325E-01    0.440373E-02    0.000000E+00
    0.727031E-01    0.440373E-02    0.000000E+00
    0.736835E-01    0.440373E-02    0.000000E+00
    0.746736E-01    0.440373E-02    0.000000E+00
    0.756737E-01    0.440373E-02    0.000000E+00
    0.766837E-01    0.440373E-02    0.000000E+00
    0.670215E-01    0.460455E-02    0.000000E+00
    0.679450E-01    0.460455E-02    0.000000E+00
    0.688778E-01    0.460455E-02    0.000000E+00
    0.698199E-01    0.460455E-02    0.000000E+00
    0.707714E-01    0.460455E-02    0.000000E+00
    0.717325E-01    0.460455E-02    0.000000E+00
    0.727031E-01    0.460455E-02    0.000000E+00
    0.736835E-01    0.460455E-02    0.000000E+00
    0.746736E-01    0.460455E-02    0.000000E+00
    0.756737E-01    0.460455E-02    0.000000E+00
    0.766837E-01    0.460455E-02    0.000000E+00
    0.670215E-01    0.480136E-02    0.000000E+00
    0.679450E-01    0.480136E-02    0.000000E+00
    0.688778E-01    0.480136E-02    0.000000E+00
    0.698199E-01    0.480136E-02    0.000000E+00
    0.707714E-01    0.480136E-02    0.000000E+00
    0.717325E-01    0.480136E-02    0.000000E+00
    0.727031E-01    0.480136E-02    0.000000E+00
    0.736835E-01    0.480136E-02    0.000000E+00
    0.746736E-01    0.480136E-02    0.000000E+00
    0.756737E-01    0.480136E-02    0.000000E+00
    0.766837E-01    0.480136E-02    0.000000E+00
    0.670215E-01    0.264236E-02    0.160000E-02
    0.679450E-01    0.264236E-02    0.160000E-02
    0.688778E-01    0.264236E-02    0.160000E-02
    0.698199E-01    0.264236E-02    0.160000E-02
    0.707714E-01    0.264236E-02    0.160000E-02
    0.717325E-01    0.264236E-02    0.160000E-02
    0.727031E-01    0.264236E-02    0.160000E-02
    0.736835E-01    0.264236E-02    0.160000E-02
    0.746736E-01    0.264236E-02    0.160000E-02
    0.756737E-01    0.264236E-02    0.160000E-02
    0.766837E-01    0.264236E-02    0.160000E-02
    0.670215E-01    0.287841E-02    0.160000E-02
    0.679450E-01    0.287841E-02    0.160000E-02
    0.688778E-01    0.287841E-02    0.160000E-02
    0.698199E-01    0.287841E-02    0.160000E-02
    0.707714E-01    0.287841E-02    0.160000E-02
    0.717325E-01    0.287841E-02    0.160000E-02
    0.727031E-01    0.287841E-02    0.160000E-02
    0.736835E-01    0.287841E-02    0.160000E-02
    0.746736E-01    0.287841E-02    0.160000E-02
    0.756737E-01    0.287841E-02    0.160000E-02
    0.766837E-01    0.287841E-02    0.160000E-02
    0.670215E-01    0.310974E-02    0.160000E-02
    0.679450E-01    0.310974E-02    0.160000E-02
    0.688778E-01    0.310974E-02    0.160000E-02
    0.698199E-01    0.310974E-02    0.160000E-02
    0.707714E-01    0.310974E-02    0.160000E-02
    0.717325E-01    0.310974E-02    0.160000E-02
    0.727031E-01    0.310974E-02    0.160000E-02
    0.736835E-01    0.310974E-02    0.160000E-02
    0.746736E-01    0.310974E-02    0.160000E-02
    0.756737E-01    0.310974E-02    0.160000E-02
    0.766837E-01    0.310974E-02    0.160000E-02
    0.670215E-01    0.333644E-02    0.160000E-02
    0.679450E-01    0.333644E-02    0.160000E-02
    0.688778E-01    0.333644E-02    0.160000E-02
    0.698199E-01    0.333644E-02    0.160000E-02
    0.707714E-01    0.333644E-02    0.160000E-02
    0.717325E-01    0.333644E-02    0.160000E-02
    0.727031E-01    0.333644E-02    0.160000E-02
    0.736835E-01    0.333644E-02    0.160000E-02
    0.746736E-01    0.333644E-02    0.160000E-02
    0.756737E-01    0.333644E-02    0.160000E-02
    0.766837E-01    0.333644E-02    0.160000E-02
    0.670215E-01    0.355861E-02    0.160000E-02
    0.679450E-01    0.355861E-02    0.160000E-02
    0.688778E-01    0.355861E-02    0.160000E-02
    0.698199E-01    0.355861E-02    0.160000E-02
    0.707714E-01    0.355861E-02    0.160000E-02
    0.717325E-01    0.355861E-02    0.160000E-02
    0.727031E-01    0.355861E-02    0.160000E-02
    0.736835E-01    0.355861E-02    0.160000E-02
    0.746736E-01    0.355861E-02    0.160000E-02
    0.756737E-01    0.355861E-02    0.160000E-02
    0.766837E-01    0.355861E-02    0.160000E-02
    0.670215E-01    0.377633E-02    0.160000E-02
    0.679450E-01    0.377633E-02    0.160000E-02
    0.688778E-01    0.377633E-02    0.160000E-02
    0.698199E-01    0.377633E-02    0.160000E-02
    0.707714E-01    0.377633E-02    0.160000E-02
    0.717325E-01    0.377633E-02    0.160000E-02
    0.727031E-01    0.377633E-02    0.160000E-02
    0.736835E-01    0.377633E-02    0.160000E-02
    0.746736E-01    0.377633E-02    0.160000E-02
    0.756737E-01    0.377633E-02    0.160000E-02
    0.766837E-01    0.377633E-02    0.160000E-02
    0.670215E-01    0.398970E-02    0.160000E-02
    0.679450E-01    0.398970E-02    0.160000E-02
    0.688778E-01    0.398970E-02    0.160000E-02
    0.698199E-01    0.398970E-02    0.160000E-02
    0.707714E-01    0.398970E-02    0.160000E-02
    0.717325E-01    0.398970E-02    0.160000E-02
    0.727031E-01    0.398970E-02    0.160000E-02
    0.736835E-01    0.398970E-02    0.160000E-02
    0.746736E-01    0.398970E-02    0.160000E-02
    0.756737E-01    0.398970E-02    0.160000E-02
    0.766837E-01    0.398970E-02    0.160000E-02
    0.670215E-01    0.419881E-02    0.160000E-02
    0.679450E-01    0.419881E-02    0.160000E-02
    0.688778E-01    0.419881E-02    0.160000E-02
    0.698199E-01    0.419881E-02    0.160000E-02
    0.707714E-01    0.419881E-02    0.160000E-02
    0.717325E-01    0.419881E-02    0.160000E-02
    0.727031E-01    0.419881E-02    0.160000E-02
    0.736835E-01    0.419881E-02    0.160000E-02
    0.746736E-01    0.419881E-02    0.160000E-02
    0.756737E-01    0.419881E-02    0.160000E-02
    0.766837E-01    0.419881E-02    0.160000E-02
    0.670215E-01    0.440373E-02    0.160000E-02
    0.679450E-01    0.440373E-02    0.160000E-02
    0.688778E-01    0.440373E-02    0.160000E-02
    0.698199E-01    0.440373E-02    0.160000E-02
    0.707714E-01    0.440373E-02    0.160000E-02
    0.717325E-01    0.440373E-02    0.160000E-02
    0.727031E-01    0.440373E-02    0.160000E-02
    0.736835E-01    0.440373E-02    0.160000E-02
    0.746736E-01    0.440373E-02    0.160000E-02
    0.756737E-01    0.440373E-02    0.160000E-02
    0.766837E-01    0.440373E-02    0.160000E-02
    0.670215E-01    0.460455E-02    0.160000E-02
    0.679450E-01    0.460455E-02    0.160000E-02
    0.688778E-01    0.460455E-02    0.160000E-02
    0.698199E-01    0.460455E-02    0.160000E-02
    0.707714E-01    0.460455E-02    0.160000E-02
    0.717325E-01    0.460455E-02    0.160000E-02
    0.727031E-01    0.460455E-02    0.160000E-02
    0.736835E-01    0.460455E-02    0.160000E-02
    0.746736E-01    0.460455E-02    0.160000E-02
    0.756737E-01    0.460455E-02    0.160000E-02
    0.766837E-01    0.460455E-02    0.160000E-02
    0.670215E-01    0.480136E-02    0.160000E-02
    0.679450E-01    0.480136E-02    0.160000E-02
    0.688778E-01    0.480136E-02    0.160000E-02
    0.698199E-01    0.480136E-02    0.160000E-02
    0.707714E-01    0.480136E-02    0.160000E-02
    0.717325E-01    0.480136E-02    0.160000E-02
    0.727031E-01    0.480136E-02    0.160000E-02
    0.736835E-01    0.480136E-02    0.160000E-02
    0.746736E-01    0.480136E-02    0.160000E-02
    0.756737E-01    0.480136E-02    0.160000E-02
    0.766837E-01    0.480136E-02    0.160000E-02
</DataArray>
</Points>
<PointData>
<DataArray Name="Velocity" type="Float64" format="ascii" NumberOfComponents="3">
    0.883730E-01   -0.427474E-05    0.000000E+00
    0.883759E-01   -0.402471E-05    0.000000E+00
    0.883786E-01   -0.375421E-05    0.000000E+00
    0.883811E-01   -0.349983E-05    0.000000E+00
    0.883836E-01   -0.326089E-05    0.000000E+00
    0.883858E-01   -0.303682E-05    0.000000E+00
    0.883880E-01   -0.282713E-05    0.000000E+00
    0.883900E-01   -0.263063E-05    0.000000E+00
    0.883919E-01   -0.244682E-05    0.000000E+00
    0.883937E-01   -0.227549E-05    0.000000E+00
    0.883954E-01   -0.211512E-05    0.000000E+00
    0.883730E-01   -0.464764E-05    0.000000E+00
    0.883759E-01   -0.437657E-05    0.000000E+00
    0.883786E-01   -0.408291E-05    0.000000E+00
    0.883812E-01   -0.380582E-05    0.000000E+00
    0.883836E-01   -0.354478E-05    0.000000E+00
    0.883859E-01   -0.329912E-05    0.000000E+00
    0.883880E-01   -0.306807E-05    0.000000E+00
    0.883900E-01   -0.285142E-05    0.000000E+00
    0.883919E-01   -0.264926E-05    0.000000E+00
    0.883937E-01   -0.246144E-05    0.000000E+00
    0.883954E-01   -0.228790E-05    0.000000E+00
    0.883731E-01   -0.501645E-05    0.000000E+00
    0.883760E-01   -0.472380E-05    0.000000E+00
    0.883787E-01   -0.440676E-05    0.000000E+00
    0.883813E-01   -0.410787E-05    0.000000E+00
    0.883837E-01   -0.382656E-05    0.000000E+00
    0.883859E-01   -0.356220E-05    0.000000E+00
    0.883881E-01   -0.331393E-05    0.000000E+00
    0.883901E-01   -0.308129E-05    0.000000E+00
    0.883920E-01   -0.286402E-05    0.000000E+00
    0.883938E-01   -0.266168E-05    0.000000E+00
    0.883954E-01   -0.247407E-05    0.000000E+00
    0.883732E-01   -0.537698E-05    0.000000E+00
    0.883760E-01   -0.506318E-05    0.000000E+00
    0.883788E-01   -0.472329E-05    0.000000E+00
    0.883813E-01   -0.440306E-05    0.000000E+00
    0.883837E-01   -0.410192E-05    0.000000E+00
    0.883860E-01   -0.381921E-05    0.000000E+00
    0.883881E-01   -0.355401E-05    0.000000E+00
    0.883901E-01   -0.330563E-05    0.000000E+00
    0.883920E-01   -0.307353E-05    0.000000E+00
    0.883938E-01   -0.285705E-05    0.000000E+00
    0.883955E-01   -0.265577E-05    0.000000E+00
    0.883733E-01   -0.572926E-05    0.000000E+00
    0.883761E-01   -0.539484E-05    0.000000E+00
    0.883788E-01   -0.503262E-05    0.000000E+00
    0.883814E-01   -0.469151E-05    0.000000E+00
    0.883838E-01   -0.437093E-05    0.000000E+00
    0.883860E-01   -0.407023E-05    0.000000E+00
    0.883882E-01   -0.378844E-05    0.000000E+00
    0.883902E-01   -0.352464E-05    0.000000E+00
    0.883921E-01   -0.327804E-05    0.000000E+00
    0.883939E-01   -0.304772E-05    0.000000E+00
    0.883955E-01   -0.283308E-05    0.000000E+00
    0.883734E-01   -0.607327E-05    0.000000E+00
    0.883762E-01   -0.571871E-05    0.000000E+00
    0.883789E-01   -0.533469E-05    0.000000E+00
    0.883815E-01   -0.497316E-05    0.000000E+00
    0.883839E-01   -0.463357E-05    0.000000E+00
    0.883861E-01   -0.431526E-05    0.000000E+00
    0.883882E-01   -0.401724E-05    0.000000E+00
    0.883902E-01   -0.373840E-05    0.000000E+00
    0.883921E-01   -0.347762E-05    0.000000E+00
    0.883939E-01   -0.323377E-05    0.000000E+00
    0.883956E-01   -0.300609E-05    0.000000E+00
    0.883735E-01   -0.640899E-05    0.000000E+00
    0.883763E-01   -0.603478E-05    0.000000E+00
    0.883790E-01   -0.562948E-05    0.000000E+00
    0.883816E-01   -0.524799E-05    0.000000E+00
    0.883840E-01   -0.488980E-05    0.000000E+00
    0.883862E-01   -0.455432E-05    0.000000E+00
    0.883883E-01   -0.424048E-05    0.000000E+00
    0.883903E-01   -0.394695E-05    0.000000E+00
    0.883922E-01   -0.367232E-05    0.000000E+00
    0.883940E-01   -0.341525E-05    0.000000E+00
    0.883956E-01   -0.317484E-05    0.000000E+00
    0.883736E-01   -0.673643E-05    0.000000E+00
    0.883765E-01   -0.634308E-05    0.000000E+00
    0.883791E-01   -0.591699E-05    0.000000E+00
    0.883817E-01   -0.551601E-05    0.000000E+00
    0.883841E-01   -0.513967E-05    0.000000E+00
    0.883863E-01   -0.478743E-05    0.000000E+00
    0.883884E-01   -0.445818E-05    0.000000E+00
    0.883904E-01   -0.415033E-05    0.000000E+00
    0.883923E-01   -0.386219E-05    0.000000E+00
    0.883940E-01   -0.359220E-05    0.000000E+00
    0.883957E-01   -0.333936E-05    0.000000E+00
    0.883737E-01   -0.705562E-05    0.000000E+00
    0.883766E-01   -0.664362E-05    0.000000E+00
    0.883793E-01   -0.619727E-05    0.000000E+00
    0.883818E-01   -0.577725E-05    0.000000E+00
    0.883842E-01   -0.538319E-05    0.000000E+00
    0.883864E-01   -0.501464E-05    0.000000E+00
    0.883885E-01   -0.467039E-05    0.000000E+00
    0.883905E-01   -0.434859E-05    0.000000E+00
    0.883923E-01   -0.404727E-05    0.000000E+00
    0.883941E-01   -0.376469E-05    0.000000E+00
    0.883958E-01   -0.349972E-05    0.000000E+00
    0.883739E-01   -0.736668E-05    0.000000E+00
    0.883767E-01   -0.693650E-05    0.000000E+00
    0.883794E-01   -0.647045E-05    0.000000E+00
    0.883819E-01   -0.603192E-05    0.000000E+00
    0.883843E-01   -0.562060E-05    0.000000E+00
    0.883865E-01   -0.523619E-05    0.000000E+00
    0.883886E-01   -0.487733E-05    0.000000E+00
    0.883906E-01   -0.454188E-05    0.000000E+00
    0.883924E-01   -0.422764E-05    0.000000E+00
    0.883942E-01   -0.393275E-05    0.000000E+00
    0.883958E-01   -0.365596E-05    0.000000E+00
    0.883741E-01   -0.765699E-05    0.000000E+00
    0.883769E-01   -0.721104E-05    0.000000E+00
    0.883795E-01   -0.672918E-05    0.000000E+00
    0.883820E-01   -0.627567E-05    0.000000E+00
    0.883844E-01   -0.584922E-05    0.000000E+00
    0.883866E-01   -0.544863E-05    0.000000E+00
    0.883887E-01   -0.507289E-05    0.000000E+00
    0.883907E-01   -0.472087E-05    0.000000E+00
    0.883925E-01   -0.439148E-05    0.000000E+00
    0.883943E-01   -0.408385E-05    0.000000E+00
    0.883959E-01   -0.379636E-05    0.000000E+00
    0.883729E-01   -0.431183E-05    0.105609E-20
    0.883758E-01   -0.402471E-05    0.985770E-21
    0.883786E-01   -0.375421E-05    0.919517E-21
    0.883811E-01   -0.349983E-05    0.857211E-21
    0.883836E-01   -0.326089E-05    0.798688E-21
    0.883858E-01   -0.303682E-05    0.743805E-21
    0.883880E-01   -0.282713E-05    0.692446E-21
    0.883900E-01   -0.263063E-05    0.644319E-21
    0.883919E-01   -0.244682E-05    0.599297E-21
    0.883937E-01   -0.227549E-05    0.557334E-21
    0.883954E-01   -0.211512E-05    0.518055E-21
    0.883730E-01   -0.468789E-05    0.114820E-20
    0.883759E-01   -0.437657E-05    0.107195E-20
    0.883786E-01   -0.408291E-05    0.100002E-20
    0.883812E-01   -0.380582E-05    0.932157E-21
    0.883836E-01   -0.354478E-05    0.868220E-21
    0.883859E-01   -0.329912E-05    0.808052E-21
    0.883880E-01   -0.306807E-05    0.751461E-21
    0.883900E-01   -0.285142E-05    0.698397E-21
    0.883919E-01   -0.264926E-05    0.648882E-21
    0.883937E-01   -0.246144E-05    0.602878E-21
    0.883954E-01   -0.228790E-05    0.560374E-21
    0.883731E-01   -0.505991E-05    0.123932E-20
    0.883760E-01   -0.472380E-05    0.115700E-20
    0.883787E-01   -0.440676E-05    0.107935E-20
    0.883813E-01   -0.410787E-05    0.100614E-20
    0.883837E-01   -0.382656E-05    0.937237E-21
    0.883859E-01   -0.356220E-05    0.872486E-21
    0.883881E-01   -0.331393E-05    0.811679E-21
    0.883901E-01   -0.308129E-05    0.754698E-21
    0.883920E-01   -0.286402E-05    0.701483E-21
    0.883938E-01   -0.266168E-05    0.651923E-21
    0.883954E-01   -0.247407E-05    0.605973E-21
    0.883732E-01   -0.542356E-05    0.132839E-20
    0.883760E-01   -0.506318E-05    0.124012E-20
    0.883788E-01   -0.472329E-05    0.115687E-20
    0.883813E-01   -0.440306E-05    0.107844E-20
    0.883837E-01   -0.410192E-05    0.100468E-20
    0.883860E-01   -0.381921E-05    0.935436E-21
    0.883881E-01   -0.355401E-05    0.870482E-21
    0.883901E-01   -0.330563E-05    0.809646E-21
    0.883920E-01   -0.307353E-05    0.752799E-21
    0.883938E-01   -0.285705E-05    0.699775E-21
    0.883955E-01   -0.265577E-05    0.650476E-21
    0.883733E-01   -0.577891E-05    0.141542E-20
    0.883761E-01   -0.539484E-05    0.132135E-20
    0.883788E-01   -0.503262E-05    0.123264E-20
    0.883814E-01   -0.469151E-05    0.114909E-20
    0.883838E-01   -0.437093E-05    0.107057E-20
    0.883860E-01   -0.407023E-05    0.996918E-21
    0.883882E-01   -0.378844E-05    0.927900E-21
    0.883902E-01   -0.352464E-05    0.863289E-21
    0.883921E-01   -0.327804E-05    0.802889E-21
    0.883939E-01   -0.304772E-05    0.746477E-21
    0.883955E-01   -0.283308E-05    0.693905E-21
    0.883734E-01   -0.612589E-05    0.150041E-20
    0.883762E-01   -0.571871E-05    0.140068E-20
    0.883789E-01   -0.533469E-05    0.130662E-20
    0.883815E-01   -0.497316E-05    0.121807E-20
    0.883839E-01   -0.463357E-05    0.113490E-20
    0.883861E-01   -0.431526E-05    0.105693E-20
    0.883882E-01   -0.401724E-05    0.983941E-21
    0.883902E-01   -0.373840E-05    0.915644E-21
    0.883921E-01   -0.347762E-05    0.851771E-21
    0.883939E-01   -0.323377E-05    0.792046E-21
    0.883956E-01   -0.300609E-05    0.736280E-21
    0.883735E-01   -0.646452E-05    0.158335E-20
    0.883763E-01   -0.603478E-05    0.147810E-20
    0.883790E-01   -0.562948E-05    0.137882E-20
    0.883816E-01   -0.524799E-05    0.128539E-20
    0.883840E-01   -0.488980E-05    0.119766E-20
    0.883862E-01   -0.455432E-05    0.111549E-20
    0.883883E-01   -0.424048E-05    0.103862E-20
    0.883903E-01   -0.394695E-05    0.966723E-21
    0.883922E-01   -0.367232E-05    0.899460E-21
    0.883940E-01   -0.341525E-05    0.836496E-21
    0.883956E-01   -0.317484E-05    0.777610E-21
    0.883736E-01   -0.679480E-05    0.166425E-20
    0.883765E-01   -0.634308E-05    0.155361E-20
    0.883791E-01   -0.591699E-05    0.144925E-20
    0.883817E-01   -0.551601E-05    0.135103E-20
    0.883841E-01   -0.513967E-05    0.125886E-20
    0.883863E-01   -0.478743E-05    0.117258E-20
    0.883884E-01   -0.445818E-05    0.109194E-20
    0.883904E-01   -0.415033E-05    0.101654E-20
    0.883923E-01   -0.386219E-05    0.945965E-21
    0.883940E-01   -0.359220E-05    0.879836E-21
    0.883957E-01   -0.333936E-05    0.817907E-21
    0.883737E-01   -0.711673E-05    0.174310E-20
    0.883766E-01   -0.664362E-05    0.162722E-20
    0.883793E-01   -0.619727E-05    0.151789E-20
    0.883818E-01   -0.577725E-05    0.141502E-20
    0.883842E-01   -0.538319E-05    0.131850E-20
    0.883864E-01   -0.501464E-05    0.122823E-20
    0.883885E-01   -0.467039E-05    0.114392E-20
    0.883905E-01   -0.434859E-05    0.106510E-20
    0.883923E-01   -0.404727E-05    0.991296E-21
    0.883941E-01   -0.376469E-05    0.922084E-21
    0.883958E-01   -0.349972E-05    0.857184E-21
    0.883739E-01   -0.743048E-05    0.181994E-20
    0.883767E-01   -0.693650E-05    0.169895E-20
    0.883794E-01   -0.647045E-05    0.158480E-20
    0.883819E-01   -0.603192E-05    0.147739E-20
    0.883843E-01   -0.562060E-05    0.137665E-20
    0.883865E-01   -0.523619E-05    0.128250E-20
    0.883886E-01   -0.487733E-05    0.119460E-20
    0.883906E-01   -0.454188E-05    0.111244E-20
    0.883924E-01   -0.422764E-05    0.103547E-20
    0.883942E-01   -0.393275E-05    0.963246E-21
    0.883958E-01   -0.365596E-05    0.895453E-21
    0.883741E-01   -0.772331E-05    0.189167E-20
    0.883769E-01   -0.721104E-05    0.176620E-20
    0.883795E-01   -0.672918E-05    0.164817E-20
    0.883820E-01   -0.627567E-05    0.153710E-20
    0.883844E-01   -0.584922E-05    0.143265E-20
    0.883866E-01   -0.544863E-05    0.133453E-20
    0.883887E-01   -0.507289E-05    0.124250E-20
    0.883907E-01   -0.472087E-05    0.115628E-20
    0.883925E-01   -0.439148E-05    0.107560E-20
    0.883943E-01   -0.408385E-05    0.100026E-20
    0.883959E-01   -0.379636E-05    0.929840E-21
</DataArray>
</PointData>
<CellData>
<DataArray Name="DP" type="Float64" format="ascii" NumberOfComponents="1">
      0.000000E+0000
      0.000000E+0000
      0.000000E+0000
      0.000000E+0000
      0.000000E+0000
      0.000000E+0000
      0.000000E+0000
      0.000000E+0000
      0.000000E+0000
      0.000000E+0000
      0.000000E+0000
      0.000000E+0000
      0.000000E+0000
      0.000000E+0000
      0.000000E+0000
      0.000000E+0000
      0.000000E+0000
      0.000000E+0000
      0.000000E+0000
      0.000000E+0000
      0.000000E+0000
      0.000000E+0000
      0.000000E+0000
      0.000000E+0000
      0.000000E+0000
      0.000000E+0000
      0.000000E+0000
      0.000000E+0000
      0.000000E+0000
      0.000000E+0000
      0.000000E+0000
      0.000000E+0000
      0.000000E+0000
      0.000000E+0000
      0.000000E+0000
      0.000000E+0000
      0.000000E+0000
      0.000000E+0000
      0.000000E+0000
      0.000000E+0000
      0.000000E+0000
      0.000000E+0000
      0.000000E+0000
      0.000000E+0000
      0.000000E+0000
      0.000000E+0000
      0.000000E+0000
      0.000000E+0000
      0.000000E+0000
      0.000000E+0000
      0.000000E+0000
      0.000000E+0000
      0.000000E+0000
      0.000000E+0000
      0.000000E+0000
      0.000000E+0000
      0.000000E+0000
      0.000000E+0000
      0.000000E+0000
      0.000000E+0000
      0.000000E+0000
      0.000000E+0000
      0.000000E+0000
      0.000000E+0000
      0.000000E+0000
      0.000000E+0000
      0.000000E+0000
      0.000000E+0000
      0.000000E+0000
      0.000000E+0000
      0.000000E+0000
      0.000000E+0000
      0.000000E+0000
      0.000000E+0000
      0.000000E+0000
      0.000000E+0000
      0.000000E+0000
      0.000000E+0000
      0.000000E+0000
      0.000000E+0000
      0.000000E+0000
      0.000000E+0000
      0.000000E+0000
      0.000000E+0000
      0.000000E+0000
      0.000000E+0000
      0.000000E+0000
      0.000000E+0000
      0.000000E+0000
      0.000000E+0000
      0.000000E+0000
      0.000000E+0000
      0.000000E+0000
      0.000000E+0000
      0.000000E+0000
      0.000000E+0000
      0.000000E+0000
      0.000000E+0000
      0.000000E+0000
      0.000000E+0000
</DataArray>
<DataArray Name="P" type="Float64" format="ascii" NumberOfComponents="1">
     -0.142731E+0000
     -0.153409E+0000
     -0.164192E+0000
     -0.175080E+0000
     -0.186072E+0000
     -0.197172E+0000
     -0.208379E+0000
     -0.219697E+0000
     -0.231127E+0000
     -0.242675E+0000
     -0.142730E+0000
     -0.153408E+0000
     -0.164191E+0000
     -0.175079E+0000
     -0.186072E+0000
     -0.197171E+0000
     -0.208379E+0000
     -0.219697E+0000
     -0.231128E+0000
     -0.242676E+0000
     -0.142729E+0000
     -0.153408E+0000
     -0.164190E+0000
     -0.175078E+0000
     -0.186071E+0000
     -0.197171E+0000
     -0.208379E+0000
     -0.219697E+0000
     -0.231129E+0000
     -0.242676E+0000
     -0.142729E+0000
     -0.153407E+0000
     -0.164190E+0000
     -0.175078E+0000
     -0.186071E+0000
     -0.197171E+0000
     -0.208379E+0000
     -0.219698E+0000
     -0.231129E+0000
     -0.242677E+0000
     -0.142728E+0000
     -0.153406E+0000
     -0.164189E+0000
     -0.175077E+0000
     -0.186071E+0000
     -0.197171E+0000
     -0.208379E+0000
     -0.219698E+0000
     -0.231130E+0000
     -0.242677E+0000
     -0.142727E+0000
     -0.153406E+0000
     -0.164189E+0000
     -0.175077E+0000
     -0.186071E+0000
     -0.197171E+0000
     -0.208379E+0000
     -0.219698E+0000
     -0.231130E+0000
     -0.242678E+0000
     -0.142727E+0000
     -0.153405E+0000
     -0.164189E+0000
     -0.175077E+0000
     -0.186071E+0000
     -0.197171E+0000
     -0.208380E+0000
     -0.219698E+0000
     -0.231130E+0000
     -0.242678E+0000
     -0.142726E+0000
     -0.153405E+0000
     -0.164189E+0000
     -0.175077E+0000
     -0.186071E+0000
     -0.197171E+0000
     -0.208380E+0000
     -0.219699E+0000
     -0.231131E+0000
     -0.242678E+0000
     -0.142725E+0000
     -0.153405E+0000
     -0.164189E+0000
     -0.175077E+0000
     -0.186071E+0000
     -0.197172E+0000
     -0.208380E+0000
     -0.219699E+0000
     -0.231131E+0000
     -0.242678E+0000
     -0.142725E+0000
     -0.153404E+0000
     -0.164189E+0000
     -0.175078E+0000
     -0.186072E+0000
     -0.197172E+0000
     -0.208380E+0000
     -0.219699E+0000
     -0.231131E+0000
     -0.242679E+0000
</DataArray>
<DataArray Name="RHO" type="Float64" format="ascii" NumberOfComponents="1">
      0.117197E+0001
      0.117197E+0001
      0.117197E+0001
      0.117197E+0001
      0.117197E+0001
      0.117197E+0001
      0.117197E+0001
      0.117197E+0001
      0.117197E+0001
      0.117197E+0001
      0.117197E+0001
      0.117197E+0001
      0.117197E+0001
      0.117197E+0001
      0.117197E+0001
      0.117197E+0001
      0.117197E+0001
      0.117197E+0001
      0.117197E+0001
      0.117197E+0001
      0.117197E+0001
      0.117197E+0001
      0.117197E+0001
      0.117197E+0001
      0.117197E+0001
      0.117197E+0001
      0.117197E+0001
      0.117197E+0001
      0.117197E+0001
      0.117197E+0001
      0.117197E+0001
      0.117197E+0001
      0.117197E+0001
      0.117197E+0001
      0.117197E+0001
      0.117197E+0001
      0.117197E+0001
      0.117197E+0001
      0.117197E+0001
      0.117197E+0001
      0.117197E+0001
      0.117197E+0001
      0.117197E+0001
      0.117197E+0001
      0.117197E+0001
      0.117197E+0001
      0.117197E+0001
      0.117197E+0001
      0.117197E+0001
      0.117197E+0001
      0.117197E+0001
      0.117197E+0001
      0.117197E+0001
      0.117197E+0001
      0.117197E+0001
      0.117197E+0001
      0.117197E+0001
      0.117197E+0001
      0.117197E+0001
      0.117197E+0001
      0.117197E+0001
      0.117197E+0001