<?xml version="1.0"?>
<VTKFile type="StructuredGrid" version="0.1" byte_order="LittleEndian">
<StructuredGrid WholeExtent="          20          30           0          10           0           1">
<Piece Extent="          20          30           0          10           0           1">
<Points>
<DataArray NumberOfComponents="3" type="Float64" format="ascii">
    0.557795E-02    0.000000E+00    0.000000E+00
    0.588705E-02    0.000000E+00    0.000000E+00
    0.619924E-02    0.000000E+00    0.000000E+00
    0.651456E-02    0.000000E+00    0.000000E+00
    0.683303E-02    0.000000E+00    0.000000E+00
    0.715469E-02    0.000000E+00    0.000000E+00
    0.747956E-02    0.000000E+00    0.000000E+00
    0.780768E-02    0.000000E+00    0.000000E+00
    0.813908E-02    0.000000E+00    0.000000E+00
    0.847379E-02    0.000000E+00    0.000000E+00
    0.881185E-02    0.000000E+00    0.000000E+00
    0.557795E-02    0.288897E-03    0.000000E+00
    0.588705E-02    0.288897E-03    0.000000E+00
    0.619924E-02    0.288897E-03    0.000000E+00
    0.651456E-02    0.288897E-03    0.000000E+00
    0.683303E-02    0.288897E-03    0.000000E+00
    0.715469E-02    0.288897E-03    0.000000E+00
    0.747956E-02    0.288897E-03    0.000000E+00
    0.780768E-02    0.288897E-03    0.000000E+00
    0.813908E-02    0.288897E-03    0.000000E+00
    0.847379E-02    0.288897E-03    0.000000E+00
    0.881185E-02    0.288897E-03    0.000000E+00
    0.557795E-02    0.572017E-03    0.000000E+00
    0.588705E-02    0.572017E-03    0.000000E+00
    0.619924E-02    0.572017E-03    0.000000E+00
    0.651456E-02    0.572017E-03    0.000000E+00
    0.683303E-02    0.572017E-03    0.000000E+00
    0.715469E-02    0.572017E-03    0.000000E+00
    0.747956E-02    0.572017E-03    0.000000E+00
    0.780768E-02    0.572017E-03    0.000000E+00
    0.813908E-02    0.572017E-03    0.000000E+00
    0.847379E-02    0.572017E-03    0.000000E+00
    0.881185E-02    0.572017E-03    0.000000E+00
    0.557795E-02    0.849473E-03    0.000000E+00
    0.588705E-02    0.849473E-03    0.000000E+00
    0.619924E-02    0.849473E-03    0.000000E+00
    0.651456E-02    0.849473E-03    0.000000E+00
    0.683303E-02    0.849473E-03    0.000000E+00
    0.715469E-02    0.849473E-03    0.000000E+00
    0.747956E-02    0.849473E-03    0.000000E+00
    0.780768E-02    0.849473E-03    0.000000E+00
    0.813908E-02    0.849473E-03    0.000000E+00
    0.847379E-02    0.849473E-03    0.000000E+00
    0.881185E-02    0.849473E-03    0.000000E+00
    0.557795E-02    0.112138E-02    0.000000E+00
    0.588705E-02    0.112138E-02    0.000000E+00
    0.619924E-02    0.112138E-02    0.000000E+00
    0.651456E-02    0.112138E-02    0.000000E+00
    0.683303E-02    0.112138E-02    0.000000E+00
    0.715469E-02    0.112138E-02    0.000000E+00
    0.747956E-02    0.112138E-02    0.000000E+00
    0.780768E-02    0.112138E-02    0.000000E+00
    0.813908E-02    0.112138E-02    0.000000E+00
    0.847379E-02    0.112138E-02    0.000000E+00
    0.881185E-02    0.112138E-02    0.000000E+00
    0.557795E-02    0.138785E-02    0.000000E+00
    0.588705E-02    0.138785E-02    0.000000E+00
    0.619924E-02    0.138785E-02    0.000000E+00
    0.651456E-02    0.138785E-02    0.000000E+00
    0.683303E-02    0.138785E-02    0.000000E+00
    0.715469E-02    0.138785E-02    0.000000E+00
    0.747956E-02    0.138785E-02    0.000000E+00
    0.780768E-02    0.138785E-02    0.000000E+00
    0.813908E-02    0.138785E-02    0.000000E+00
    0.847379E-02    0.138785E-02    0.000000E+00
    0.881185E-02    0.138785E-02    0.000000E+00
    0.557795E-02    0.164899E-02    0.000000E+00
    0.588705E-02    0.164899E-02    0.000000E+00
    0.619924E-02    0.164899E-02    0.000000E+00
    0.651456E-02    0.164899E-02    0.000000E+00
    0.683303E-02    0.164899E-02    0.000000E+00
    0.715469E-02    0.164899E-02    0.000000E+00
    0.747956E-02    0.164899E-02    0.000000E+00
    0.780768E-02    0.164899E-02    0.000000E+00
    0.813908E-02    0.164899E-02    0.000000E+00
    0.847379E-02    0.164899E-02    0.000000E+00
    0.881185E-02    0.164899E-02    0.000000E+00
    0.557795E-02    0.190491E-02    0.000000E+00
    0.588705E-02    0.190491E-02    0.000000E+00
    0.619924E-02    0.190491E-02    0.000000E+00
    0.651456E-02    0.190491E-02    0.000000E+00
    0.683303E-02    0.190491E-02    0.000000E+00
    0.715469E-02    0.190491E-02    0.000000E+00
    0.747956E-02    0.190491E-02    0.000000E+00
    0.780768E-02    0.190491E-02    0.000000E+00
    0.813908E-02    0.190491E-02    0.000000E+00
    0.847379E-02    0.190491E-02    0.000000E+00
    0.881185E-02    0.190491E-02    0.000000E+00
    0.557795E-02    0.215571E-02    0.000000E+00
    0.588705E-02    0.215571E-02    0.000000E+00
    0.619924E-02    0.215571E-02    0.000000E+00
    0.651456E-02    0.215571E-02    0.000000E+00
    0.683303E-02    0.215571E-02    0.000000E+00
    0.715469E-02    0.215571E-02    0.000000E+00
    0.747956E-02    0.215571E-02    0.000000E+00
    0.780768E-02    0.215571E-02    0.000000E+00
    0.813908E-02    0.215571E-02    0.000000E+00
    0.847379E-02    0.215571E-02    0.000000E+00
    0.881185E-02    0.215571E-02    0.000000E+00
    0.557795E-02    0.240149E-02    0.000000E+00
    0.588705E-02    0.240149E-02    0.000000E+00
    0.619924E-02    0.240149E-02    0.000000E+00
    0.651456E-02    0.240149E-02    0.000000E+00
    0.683303E-02    0.240149E-02    0.000000E+00
    0.715469E-02    0.240149E-02    0.000000E+00
    0.747956E-02    0.240149E-02    0.000000E+00
    0.780768E-02    0.240149E-02    0.000000E+00
    0.813908E-02    0.240149E-02    0.000000E+00
    0.847379E-02    0.240149E-02    0.000000E+00
    0.881185E-02    0.240149E-02    0.000000E+00
    0.557795E-02    0.264236E-02    0.000000E+00
    0.588705E-02    0.264236E-02    0.000000E+00
    0.619924E-02    0.264236E-02    0.000000E+00
    0.651456E-02    0.264236E-02    0.000000E+00
    0.683303E-02    0.264236E-02    0.000000E+00
    0.715469E-02    0.264236E-02    0.000000E+00
    0.747956E-02    0.264236E-02    0.000000E+00
    0.780768E-02    0.264236E-02    0.000000E+00
    0.813908E-02    0.264236E-02    0.000000E+00
    0.847379E-02    0.264236E-02    0.000000E+00
    0.881185E-02    0.264236E-02    0.000000E+00
    0.557795E-02    0.000000E+00    0.160000E-02
    0.588705E-02    0.000000E+00    0.160000E-02
    0.619924E-02    0.000000E+00    0.160000E-02
    0.651456E-02    0.000000E+00    0.160000E-02
    0.683303E-02    0.000000E+00    0.160000E-02
    0.715469E-02    0.000000E+00    0.160000E-02
    0.747956E-02    0.000000E+00    0.160000E-02
    0.780768E-02    0.000000E+00    0.160000E-02
    0.813908E-02    0.000000E+00    0.160000E-02
    0.847379E-02    0.000000E+00    0.160000E-02
    0.881185E-02    0.000000E+00    0.160000E-02
    0.557795E-02    0.288897E-03    0.160000E-02
    0.588705E-02    0.288897E-03    0.160000E-02
    0.619924E-02    0.288897E-03    0.160000E-02
    0.651456E-02    0.288897E-03    0.160000E-02
    0.683303E-02    0.288897E-03    0.160000E-02
    0.715469E-02    0.288897E-03    0.160000E-02
    0.747956E-02    0.288897E-03    0.160000E-02
    0.780768E-02    0.288897E-03    0.160000E-02
    0.813908E-02    0.288897E-03    0.160000E-02
    0.847379E-02    0.288897E-03    0.160000E-02
    0.881185E-02    0.288897E-03    0.160000E-02
    0.557795E-02    0.572017E-03    0.160000E-02
    0.588705E-02    0.572017E-03    0.160000E-02
    0.619924E-02    0.572017E-03    0.160000E-02
    0.651456E-02    0.572017E-03    0.160000E-02
    0.683303E-02    0.572017E-03    0.160000E-02
    0.715469E-02    0.572017E-03    0.160000E-02
    0.747956E-02    0.572017E-03    0.160000E-02
    0.780768E-02    0.572017E-03    0.160000E-02
    0.813908E-02    0.572017E-03    0.160000E-02
    0.847379E-02    0.572017E-03    0.160000E-02
    0.881185E-02    0.572017E-03    0.160000E-02
    0.557795E-02    0.849473E-03    0.160000E-02
    0.588705E-02    0.849473E-03    0.160000E-02
    0.619924E-02    0.849473E-03    0.160000E-02
    0.651456E-02    0.849473E-03    0.160000E-02
    0.683303E-02    0.849473E-03    0.160000E-02
    0.715469E-02    0.849473E-03    0.160000E-02
    0.747956E-02    0.849473E-03    0.160000E-02
    0.780768E-02    0.849473E-03    0.160000E-02
    0.813908E-02    0.849473E-03    0.160000E-02
    0.847379E-02    0.849473E-03    0.160000E-02
    0.881185E-02    0.849473E-03    0.160000E-02
    0.557795E-02    0.112138E-02    0.160000E-02
    0.588705E-02    0.112138E-02    0.160000E-02
    0.619924E-02    0.112138E-02    0.160000E-02
    0.651456E-02    0.112138E-02    0.160000E-02
    0.683303E-02    0.112138E-02    0.160000E-02
    0.715469E-02    0.112138E-02    0.160000E-02
    0.747956E-02    0.112138E-02    0.160000E-02
    0.780768E-02    0.112138E-02    0.160000E-02
    0.813908E-02    0.112138E-02    0.160000E-02
    0.847379E-02    0.112138E-02    0.160000E-02
    0.881185E-02    0.112138E-02    0.160000E-02
    0.557795E-02    0.138785E-02    0.160000E-02
    0.588705E-02    0.138785E-02    0.160000E-02
    0.619924E-02    0.138785E-02    0.160000E-02
    0.651456E-02    0.138785E-02    0.160000E-02
    0.683303E-02    0.138785E-02    0.160000E-02
    0.715469E-02    0.138785E-02    0.160000E-02
    0.747956E-02    0.138785E-02    0.160000E-02
    0.780768E-02    0.138785E-02    0.160000E-02
    0.813908E-02    0.138785E-02    0.160000E-02
    0.847379E-02    0.138785E-02    0.160000E-02
    0.881185E-02    0.138785E-02    0.160000E-02
    0.557795E-02    0.164899E-02    0.160000E-02
    0.588705E-02    0.164899E-02    0.160000E-02
    0.619924E-02    0.164899E-02    0.160000E-02
    0.651456E-02    0.164899E-02    0.160000E-02
    0.683303E-02    0.164899E-02    0.160000E-02
    0.715469E-02    0.164899E-02    0.160000E-02
    0.747956E-02    0.164899E-02    0.160000E-02
    0.780768E-02    0.164899E-02    0.160000E-02
    0.813908E-02    0.164899E-02    0.160000E-02
    0.847379E-02    0.164899E-02    0.160000E-02
    0.881185E-02    0.164899E-02    0.160000E-02
    0.557795E-02    0.190491E-02    0.160000E-02
    0.588705E-02    0.190491E-02    0.160000E-02
    0.619924E-02    0.190491E-02    0.160000E-02
    0.651456E-02    0.190491E-02    0.160000E-02
    0.683303E-02    0.190491E-02    0.160000E-02
    0.715469E-02    0.190491E-02    0.160000E-02
    0.747956E-02    0.190491E-02    0.160000E-02
    0.780768E-02    0.190491E-02    0.160000E-02
    0.813908E-02    0.190491E-02    0.160000E-02
    0.847379E-02    0.190491E-02    0.160000E-02
    0.881185E-02    0.190491E-02    0.160000E-02
    0.557795E-02    0.215571E-02    0.160000E-02
    0.588705E-02    0.215571E-02    0.160000E-02
    0.619924E-02    0.215571E-02    0.160000E-02
    0.651456E-02    0.215571E-02    0.160000E-02
    0.683303E-02    0.215571E-02    0.160000E-02
    0.715469E-02    0.215571E-02    0.160000E-02
    0.747956E-02    0.215571E-02    0.160000E-02
    0.780768E-02    0.215571E-02    0.160000E-02
    0.813908E-02    0.215571E-02    0.160000E-02
    0.847379E-02    0.215571E-02    0.160000E-02
    0.881185E-02    0.215571E-02    0.160000E-02
    0.557795E-02    0.240149E-02    0.160000E-02
    0.588705E-02    0.240149E-02    0.160000E-02
    0.619924E-02    0.240149E-02    0.160000E-02
    0.651456E-02    0.240149E-02    0.160000E-02
    0.683303E-02    0.240149E-02    0.160000E-02
    0.715469E-02    0.240149E-02    0.160000E-02
    0.747956E-02    0.240149E-02    0.160000E-02
    0.780768E-02    0.240149E-02    0.160000E-02
    0.813908E-02    0.240149E-02    0.160000E-02
    0.847379E-02    0.240149E-02    0.160000E-02
    0.881185E-02    0.240149E-02    0.160000E-02
    0.557795E-02    0.264236E-02    0.160000E-02
    0.588705E-02    0.264236E-02    0.160000E-02
    0.619924E-02    0.264236E-02    0.160000E-02
    0.651456E-02    0.264236E-02    0.160000E-02
    0.683303E-02    0.264236E-02    0.160000E-02
    0.715469E-02    0.264236E-02    0.160000E-02
    0.747956E-02    0.264236E-02    0.160000E-02
    0.780768E-02    0.264236E-02    0.160000E-02
    0.813908E-02    0.264236E-02    0.160000E-02
    0.847379E-02    0.264236E-02    0.160000E-02
    0.881185E-02    0.264236E-02    0.160000E-02
</DataArray>
</Points>
<PointData>
<DataArray Name="Velocity" type="Float64" format="ascii" NumberOfComponents="3">
    0.120470E+00    0.000000E+00    0.000000E+00
    0.124660E+00    0.000000E+00    0.000000E+00
    0.128307E+00    0.000000E+00    0.000000E+00
    0.131314E+00    0.000000E+00    0.000000E+00
    0.133585E+00    0.000000E+00    0.000000E+00
    0.135020E+00    0.000000E+00    0.000000E+00
    0.135521E+00    0.000000E+00    0.000000E+00
    0.134997E+00    0.000000E+00    0.000000E+00
    0.133378E+00    0.000000E+00    0.000000E+00
    0.130629E+00    0.000000E+00    0.000000E+00
    0.126779E+00    0.000000E+00    0.000000E+00
    0.120498E+00   -0.216146E-02    0.000000E+00
    0.124688E+00   -0.195262E-02    0.000000E+00
    0.128337E+00   -0.168251E-02    0.000000E+00
    0.131349E+00   -0.137986E-02    0.000000E+00
    0.133629E+00   -0.104684E-02    0.000000E+00
    0.135076E+00   -0.687323E-03    0.000000E+00
    0.135593E+00   -0.307798E-03    0.000000E+00
    0.135090E+00    0.814713E-04    0.000000E+00
    0.133496E+00    0.465338E-03    0.000000E+00
    0.130774E+00    0.823240E-03    0.000000E+00
    0.126954E+00    0.113029E-02    0.000000E+00
    0.120562E+00   -0.428045E-02    0.000000E+00
    0.124752E+00   -0.386862E-02    0.000000E+00
    0.128406E+00   -0.333635E-02    0.000000E+00
    0.131432E+00   -0.274029E-02    0.000000E+00
    0.133734E+00   -0.208464E-02    0.000000E+00
    0.135215E+00   -0.137687E-02    0.000000E+00
    0.135779E+00   -0.629521E-03    0.000000E+00
    0.135336E+00    0.137556E-03    0.000000E+00
    0.133813E+00    0.895001E-03    0.000000E+00
    0.131172E+00    0.160288E-02    0.000000E+00
    0.127436E+00    0.221266E-02    0.000000E+00
    0.120609E+00   -0.635618E-02    0.000000E+00
    0.124794E+00   -0.574851E-02    0.000000E+00
    0.128454E+00   -0.496413E-02    0.000000E+00
    0.131498E+00   -0.408657E-02    0.000000E+00
    0.133834E+00   -0.312182E-02    0.000000E+00
    0.135369E+00   -0.208053E-02    0.000000E+00
    0.136005E+00   -0.980654E-03    0.000000E+00
    0.135656E+00    0.149384E-03    0.000000E+00
    0.134247E+00    0.126746E-02    0.000000E+00
    0.131736E+00    0.231610E-02    0.000000E+00
    0.128134E+00    0.322500E-02    0.000000E+00
    0.120559E+00   -0.838405E-02    0.000000E+00
    0.124732E+00   -0.758909E-02    0.000000E+00
    0.128392E+00   -0.656481E-02    0.000000E+00
    0.131457E+00   -0.542034E-02    0.000000E+00
    0.133836E+00   -0.416307E-02    0.000000E+00
    0.135438E+00   -0.280632E-02    0.000000E+00
    0.136171E+00   -0.137261E-02    0.000000E+00
    0.135946E+00    0.102340E-03    0.000000E+00
    0.134688E+00    0.156542E-02    0.000000E+00
    0.132349E+00    0.294390E-02    0.000000E+00
    0.128931E+00    0.414821E-02    0.000000E+00
    0.120322E+00   -0.103549E-01    0.000000E+00
    0.124467E+00   -0.938274E-02    0.000000E+00
    0.128121E+00   -0.813314E-02    0.000000E+00
    0.131204E+00   -0.673920E-02    0.000000E+00
    0.133632E+00   -0.520915E-02    0.000000E+00
    0.135315E+00   -0.355825E-02    0.000000E+00
    0.136163E+00   -0.181260E-02    0.000000E+00
    0.136088E+00   -0.138598E-04    0.000000E+00
    0.135014E+00    0.177588E-02    0.000000E+00
    0.132886E+00    0.347116E-02    0.000000E+00
    0.129693E+00    0.496572E-02    0.000000E+00
    0.119803E+00   -0.122564E-01    0.000000E+00
    0.123905E+00   -0.111179E-01    0.000000E+00
    0.127540E+00   -0.965965E-02    0.000000E+00
    0.130637E+00   -0.803688E-02    0.000000E+00
    0.133116E+00   -0.625710E-02    0.000000E+00
    0.134889E+00   -0.433660E-02    0.000000E+00
    0.135870E+00   -0.230399E-02    0.000000E+00
    0.135969E+00   -0.205397E-03    0.000000E+00
    0.135107E+00    0.189014E-02    0.000000E+00
    0.133223E+00    0.388700E-02    0.000000E+00
    0.130293E+00    0.566515E-02    0.000000E+00
    0.118922E+00   -0.140733E-01    0.000000E+00
    0.122961E+00   -0.127822E-01    0.000000E+00
    0.126563E+00   -0.111334E-01    0.000000E+00
    0.129667E+00   -0.930419E-02    0.000000E+00
    0.132198E+00   -0.730106E-02    0.000000E+00
    0.134072E+00   -0.513867E-02    0.000000E+00
    0.135199E+00   -0.284691E-02    0.000000E+00
    0.135492E+00   -0.474829E-03    0.000000E+00
    0.134867E+00    0.190353E-02    0.000000E+00
    0.133254E+00    0.418485E-02    0.000000E+00
    0.130618E+00    0.623801E-02    0.000000E+00
    0.117616E+00   -0.157872E-01    0.000000E+00
    0.121576E+00   -0.143604E-01    0.000000E+00
    0.125133E+00   -0.125434E-01    0.000000E+00
    0.128236E+00   -0.105323E-01    0.000000E+00
    0.130819E+00   -0.833367E-02    0.000000E+00
    0.132800E+00   -0.595993E-02    0.000000E+00
    0.134088E+00   -0.343919E-02    0.000000E+00
    0.134592E+00   -0.821862E-03    0.000000E+00
    0.134223E+00    0.181500E-02    0.000000E+00
    0.132904E+00    0.436259E-02    0.000000E+00
    0.130584E+00    0.668108E-02    0.000000E+00
    0.115854E+00   -0.173793E-01    0.000000E+00
    0.119720E+00   -0.158370E-01    0.000000E+00
    0.123222E+00   -0.138779E-01    0.000000E+00
    0.126318E+00   -0.117130E-01    0.000000E+00
    0.128954E+00   -0.934901E-02    0.000000E+00
    0.131049E+00   -0.679569E-02    0.000000E+00
    0.132511E+00   -0.407784E-02    0.000000E+00
    0.133241E+00   -0.124454E-02    0.000000E+00
    0.133146E+00    0.162621E-02    0.000000E+00
    0.132137E+00    0.442223E-02    0.000000E+00
    0.130146E+00    0.699680E-02    0.000000E+00
    0.113641E+00   -0.188335E-01    0.000000E+00
    0.117401E+00   -0.171979E-01    0.000000E+00
    0.120844E+00   -0.151266E-01    0.000000E+00
    0.123931E+00   -0.128401E-01    0.000000E+00
    0.126619E+00   -0.103426E-01    0.000000E+00
    0.128837E+00   -0.764284E-02    0.000000E+00
    0.130485E+00   -0.476092E-02    0.000000E+00
    0.131458E+00   -0.174104E-02    0.000000E+00
    0.131653E+00    0.134012E-02    0.000000E+00
    0.130965E+00    0.436904E-02    0.000000E+00
    0.129308E+00    0.719362E-02    0.000000E+00
    0.120470E+00    0.000000E+00    0.000000E+00
    0.124660E+00    0.000000E+00    0.000000E+00
    0.128307E+00    0.000000E+00    0.000000E+00
    0.131314E+00    0.000000E+00    0.000000E+00
    0.133585E+00    0.000000E+00    0.000000E+00
    0.135020E+00    0.000000E+00    0.000000E+00
    0.135521E+00    0.000000E+00    0.000000E+00
    0.134997E+00    0.000000E+00    0.000000E+00
    0.133378E+00    0.000000E+00    0.000000E+00
    0.130629E+00    0.000000E+00    0.000000E+00
    0.126779E+00    0.000000E+00    0.000000E+00
    0.120498E+00   -0.218903E-02    0.536157E-18
    0.124688E+00   -0.195262E-02    0.478254E-18
    0.128337E+00   -0.168251E-02    0.412096E-18
    0.131349E+00   -0.137986E-02    0.337968E-18
    0.133629E+00   -0.104684E-02    0.256402E-18
    0.135076E+00   -0.687323E-03    0.168346E-18
    0.135593E+00   -0.307798E-03    0.753888E-19
    0.135090E+00    0.814713E-04   -0.199547E-19
    0.133496E+00    0.465338E-03   -0.113975E-18
    0.130774E+00    0.823240E-03   -0.201636E-18
    0.126954E+00    0.113029E-02   -0.276840E-18
    0.120562E+00   -0.433484E-02    0.106173E-17
    0.124752E+00   -0.386862E-02    0.947538E-18
    0.128406E+00   -0.333635E-02    0.817170E-18
    0.131432E+00   -0.274029E-02    0.671178E-18
    0.133734E+00   -0.208464E-02    0.510590E-18
    0.135215E+00   -0.137687E-02    0.337236E-18
    0.135779E+00   -0.629521E-03    0.154188E-18
    0.135336E+00    0.137556E-03   -0.336914E-19
    0.133813E+00    0.895001E-03   -0.219212E-18
    0.131172E+00    0.160288E-02   -0.392592E-18
    0.127436E+00    0.221266E-02   -0.541945E-18
    0.120609E+00   -0.643651E-02    0.157649E-17
    0.124794E+00   -0.574851E-02    0.140798E-17
    0.128454E+00   -0.496413E-02    0.121586E-17
    0.131498E+00   -0.408657E-02    0.100092E-17
    0.133834E+00   -0.312182E-02    0.764625E-18
    0.135369E+00   -0.208053E-02    0.509583E-18
    0.136005E+00   -0.980654E-03    0.240191E-18
    0.135656E+00    0.149384E-03   -0.365885E-19
    0.134247E+00    0.126746E-02   -0.310439E-18
    0.131736E+00    0.231610E-02   -0.567282E-18
    0.128134E+00    0.322500E-02   -0.789897E-18
    0.120559E+00   -0.848929E-02    0.207928E-17
    0.124732E+00   -0.758909E-02    0.185879E-17
    0.128392E+00   -0.656481E-02    0.160791E-17
    0.131457E+00   -0.542034E-02    0.132760E-17
    0.133836E+00   -0.416307E-02    0.101966E-17
    0.135438E+00   -0.280632E-02    0.687351E-18
    0.136171E+00   -0.137261E-02    0.336191E-18
    0.135946E+00    0.102340E-03   -0.250660E-19
    0.134688E+00    0.156542E-02   -0.383416E-18
    0.132349E+00    0.294390E-02   -0.721048E-18
    0.128931E+00    0.414821E-02   -0.101602E-17
    0.120322E+00   -0.104839E-01    0.256781E-17
    0.124467E+00   -0.938274E-02    0.229811E-17
    0.128121E+00   -0.813314E-02    0.199204E-17
    0.131204E+00   -0.673920E-02    0.165063E-17
    0.133632E+00   -0.520915E-02    0.127587E-17
    0.135315E+00   -0.355825E-02    0.871519E-18
    0.136163E+00   -0.181260E-02    0.443959E-18
    0.136088E+00   -0.138598E-04    0.339467E-20
    0.135014E+00    0.177588E-02   -0.434965E-18
    0.132886E+00    0.347116E-02   -0.850188E-18
    0.129693E+00    0.496572E-02   -0.121625E-17
    0.119803E+00   -0.124078E-01    0.303903E-17
    0.123905E+00   -0.111179E-01    0.272310E-17
    0.127540E+00   -0.965965E-02    0.236593E-17
    0.130637E+00   -0.803688E-02    0.196847E-17
    0.133116E+00   -0.625710E-02    0.153255E-17
    0.134889E+00   -0.433660E-02    0.106216E-17
    0.135870E+00   -0.230399E-02    0.564315E-18
    0.135969E+00   -0.205397E-03    0.503077E-19
    0.135107E+00    0.189014E-02   -0.462951E-18
    0.133223E+00    0.388700E-02   -0.952040E-18
    0.130293E+00    0.566515E-02   -0.138756E-17
    0.118922E+00   -0.142454E-01    0.348911E-17
    0.122961E+00   -0.127822E-01    0.313073E-17
    0.126563E+00   -0.111334E-01    0.272689E-17
    0.129667E+00   -0.930419E-02    0.227887E-17
    0.132198E+00   -0.730106E-02    0.178824E-17
    0.134072E+00   -0.513867E-02    0.125861E-17
    0.135199E+00   -0.284691E-02    0.697291E-18
    0.135492E+00   -0.474829E-03    0.116300E-18
    0.134867E+00    0.190353E-02   -0.466231E-18
    0.133254E+00    0.418485E-02   -0.102499E-17
    0.130618E+00    0.623801E-02   -0.152787E-17
    0.117616E+00   -0.159777E-01    0.391340E-17
    0.121576E+00   -0.143604E-01    0.351729E-17
    0.125133E+00   -0.125434E-01    0.307225E-17
    0.128236E+00   -0.105323E-01    0.257967E-17
    0.130819E+00   -0.833367E-02    0.204116E-17
    0.132800E+00   -0.595993E-02    0.145976E-17
    0.134088E+00   -0.343919E-02    0.842360E-18
    0.134592E+00   -0.821862E-03    0.201298E-18
    0.134223E+00    0.181500E-02   -0.444546E-18
    0.132904E+00    0.436259E-02   -0.106853E-17
    0.130584E+00    0.668108E-02   -0.163639E-17
    0.115854E+00   -0.175858E-01    0.430727E-17
    0.119720E+00   -0.158370E-01    0.387894E-17
    0.123222E+00   -0.138779E-01    0.339910E-17
    0.126318E+00   -0.117130E-01    0.286887E-17
    0.128954E+00   -0.934901E-02    0.228985E-17
    0.131049E+00   -0.679569E-02    0.166446E-17
    0.132511E+00   -0.407784E-02    0.998784E-18
    0.133241E+00   -0.124454E-02    0.304825E-18
    0.133146E+00    0.162621E-02   -0.398307E-18
    0.132137E+00    0.442223E-02   -0.108313E-17
    0.130146E+00    0.699680E-02   -0.171372E-17
    0.113641E+00   -0.190531E-01    0.466666E-17
    0.117401E+00   -0.171979E-01    0.421228E-17
    0.120844E+00   -0.151266E-01    0.370494E-17
    0.123931E+00   -0.128401E-01    0.314491E-17
    0.126619E+00   -0.103426E-01    0.253321E-17
    0.128837E+00   -0.764284E-02    0.187196E-17
    0.130485E+00   -0.476092E-02    0.116609E-17
    0.131458E+00   -0.174104E-02    0.426432E-18
    0.131653E+00    0.134012E-02   -0.328234E-18
    0.130965E+00    0.436904E-02   -0.107011E-17
    0.129308E+00    0.719362E-02   -0.176193E-17
</DataArray>
</PointData>
<CellData>
<DataArray Name="DP" type="Float64" format="ascii" NumberOfComponents="1">
      0.000000E+0000
      0.000000E+0000
      0.000000E+0000
      0.000000E+0000
      0.000000E+0000
      0.000000E+0000
      0.000000E+0000
      0.000000E+0000
      0.000000E+0000
      0.000000E+0000
      0.000000E+0000
      0.000000E+0000
      0.000000E+0000
      0.000000E+0000
      0.000000E+0000
      0.000000E+0000
      0.000000E+0000
      0.000000E+0000
      0.000000E+0000
      0.000000E+0000
      0.000000E+0000
      0.000000E+0000
      0.000000E+0000
      0.000000E+0000
      0.000000E+0000
      0.000000E+0000
      0.000000E+0000
      0.000000E+0000
      0.000000E+0000
      0.000000E+0000
      0.000000E+0000
      0.000000E+0000
      0.000000E+0000
      0.000000E+0000
      0.000000E+0000
      0.000000E+0000
      0.000000E+0000
      0.000000E+0000
      0.000000E+0000
      0.000000E+0000
      0.000000E+0000
      0.000000E+0000
      0.000000E+0000
      0.000000E+0000
      0.000000E+0000
      0.000000E+0000
      0.000000E+0000
      0.000000E+0000
      0.000000E+0000
      0.000000E+0000
      0.000000E+0000
      0.000000E+0000
      0.000000E+0000
      0.000000E+0000
      0.000000E+0000
      0.000000E+0000
      0.000000E+0000
      0.000000E+0000
      0.000000E+0000
      0.000000E+0000
      0.000000E+0000
      0.000000E+0000
      0.000000E+0000
      0.000000E+0000
      0.000000E+0000
      0.000000E+0000
      0.000000E+0000
      0.000000E+0000
      0.000000E+0000
      0.000000E+0000
      0.000000E+0000
      0.000000E+0000
      0.000000E+0000
      0.000000E+0000
      0.000000E+0000
      0.000000E+0000
      0.000000E+0000
      0.000000E+0000
      0.000000E+0000
      0.000000E+0000
      0.000000E+0000
      0.000000E+0000
      0.000000E+0000
      0.000000E+0000
      0.000000E+0000
      0.000000E+0000
      0.000000E+0000
      0.000000E+0000
      0.000000E+0000
      0.000000E+0000
      0.000000E+0000
      0.000000E+0000
      0.000000E+0000
      0.000000E+0000
      0.000000E+0000
      0.000000E+0000
      0.000000E+0000
      0.000000E+0000
      0.000000E+0000
      0.000000E+0000
</DataArray>
<DataArray Name="P" type="Float64" format="ascii" NumberOfComponents="1">
      0.567001E+0000
      0.563608E+0000
      0.560181E+0000
      0.556727E+0000
      0.553252E+0000
      0.549762E+0000
      0.546260E+0000
      0.542745E+0000
      0.539215E+0000
      0.535660E+0000
      0.566988E+0000
      0.563595E+0000
      0.560167E+0000
      0.556712E+0000
      0.553235E+0000
      0.549744E+0000
      0.546241E+0000
      0.542726E+0000
      0.539195E+0000
      0.535638E+0000
      0.566967E+0000
      0.563572E+0000
      0.560141E+0000
      0.556683E+0000
      0.553205E+0000
      0.549711E+0000
      0.546206E+0000
      0.542689E+0000
      0.539156E+0000
      0.535598E+0000
      0.566937E+0000
      0.563538E+0000
      0.560104E+0000
      0.556643E+0000
      0.553161E+0000
      0.549664E+0000
      0.546155E+0000
      0.542635E+0000
      0.539099E+0000
      0.535540E+0000
      0.566898E+0000
      0.563494E+0000
      0.560056E+0000
      0.556590E+0000
      0.553104E+0000
      0.549602E+0000
      0.546090E+0000
      0.542566E+0000
      0.539027E+0000
      0.535465E+0000
      0.566851E+0000
      0.563442E+0000
      0.559998E+0000
      0.556527E+0000
      0.553035E+0000
      0.549529E+0000
      0.546011E+0000
      0.542482E+0000
      0.538940E+0000
      0.535376E+0000
      0.566796E+0000
      0.563381E+0000
      0.559932E+0000
      0.556455E+0000
      0.552957E+0000
      0.549444E+0000
      0.545921E+0000
      0.542387E+0000
      0.538841E+0000
      0.535275E+0000
      0.566736E+0000
      0.563314E+0000
      0.559858E+0000
      0.556375E+0000
      0.552870E+0000
      0.549351E+0000
      0.545821E+0000
      0.542282E+0000
      0.538732E+0000
      0.535162E+0000
      0.566671E+0000
      0.563242E+0000
      0.559779E+0000
      0.556289E+0000
      0.552778E+0000
      0.549251E+0000
      0.545715E+0000
      0.542170E+0000
      0.538614E+0000
      0.535042E+0000
      0.566604E+0000
      0.563167E+0000
      0.559696E+0000
      0.556199E+0000
      0.552681E+0000
      0.549148E+0000
      0.545604E+0000
      0.542052E+0000
      0.538491E+0000
      0.534916E+0000
</DataArray>
<DataArray Name="RHO" type="Float64" format="ascii" NumberOfComponents="1">
      0.882523E+0000
      0.884753E+0000
      0.887306E+0000
      0.890293E+0000
      0.893868E+0000
      0.898251E+0000
      0.903749E+0000
      0.910777E+0000
      0.919895E+0000
      0.931779E+0000
      0.883061E+0000
      0.885311E+0000
      0.887875E+0000
      0.890859E+0000
      0.894416E+0000
      0.898762E+0000
      0.904198E+0000
      0.911137E+0000
      0.920129E+0000
      0.931849E+0000
      0.884203E+0000
      0.886492E+0000
      0.889074E+0000
      0.892049E+0000
      0.895566E+0000
      0.899835E+0000
      0.905151E+0000
      0.911915E+0000
      0.920667E+0000
      0.932074E+0000
      0.886065E+0000
      0.888414E+0000
      0.891020E+0000
      0.893978E+0000
      0.897430E+0000
      0.901581E+0000
      0.906717E+0000
      0.913227E+0000
      0.921637E+0000
      0.932601E+0000
      0.888820E+0000
      0.891250E+0000
      0.893881E+0000
      0.896807E+0000
      0.900165E+0000
      0.904152E+0000
      0.909046E+0000
      0.915227E+0000
      0.923203E+0000
      0.933612E+0000
      0.892694E+0000
      0.895214E+0000
      0.897865E+0000
      0.900734E+0000
      0.903956E+0000
      0.907724E+0000
      0.912311E+0000
      0.918087E+0000
      0.925543E+0000
      0.935303E+0000
      0.897850E+0000
      0.900536E+0000