<?xml version="1.0"?>
<VTKFile type="StructuredGrid" version="0.1" byte_order="LittleEndian">
<StructuredGrid WholeExtent="          60          70          30          40           0           1">
<Piece Extent="          60          70          30          40           0           1">
<Points>
<DataArray NumberOfComponents="3" type="Float64" format="ascii">
    0.206889E-01    0.669651E-02    0.000000E+00
    0.211491E-01    0.669651E-02    0.000000E+00
    0.216139E-01    0.669651E-02    0.000000E+00
    0.220834E-01    0.669651E-02    0.000000E+00
    0.225576E-01    0.669651E-02    0.000000E+00
    0.230365E-01    0.669651E-02    0.000000E+00
    0.235201E-01    0.669651E-02    0.000000E+00
    0.240087E-01    0.669651E-02    0.000000E+00
    0.245021E-01    0.669651E-02    0.000000E+00
    0.250004E-01    0.669651E-02    0.000000E+00
    0.255037E-01    0.669651E-02    0.000000E+00
    0.206889E-01    0.690815E-02    0.000000E+00
    0.211491E-01    0.690815E-02    0.000000E+00
    0.216139E-01    0.690815E-02    0.000000E+00
    0.220834E-01    0.690815E-02    0.000000E+00
    0.225576E-01    0.690815E-02    0.000000E+00
    0.230365E-01    0.690815E-02    0.000000E+00
    0.235201E-01    0.690815E-02    0.000000E+00
    0.240087E-01    0.690815E-02    0.000000E+00
    0.245021E-01    0.690815E-02    0.000000E+00
    0.250004E-01    0.690815E-02    0.000000E+00
    0.255037E-01    0.690815E-02    0.000000E+00
    0.206889E-01    0.712614E-02    0.000000E+00
    0.211491E-01    0.712614E-02    0.000000E+00
    0.216139E-01    0.712614E-02    0.000000E+00
    0.220834E-01    0.712614E-02    0.000000E+00
    0.225576E-01    0.712614E-02    0.000000E+00
    0.230365E-01    0.712614E-02    0.000000E+00
    0.235201E-01    0.712614E-02    0.000000E+00
    0.240087E-01    0.712614E-02    0.000000E+00
    0.245021E-01    0.712614E-02    0.000000E+00
    0.250004E-01    0.712614E-02    0.000000E+00
    0.255037E-01    0.712614E-02    0.000000E+00
    0.206889E-01    0.735067E-02    0.000000E+00
    0.211491E-01    0.735067E-02    0.000000E+00
    0.216139E-01    0.735067E-02    0.000000E+00
    0.220834E-01    0.735067E-02    0.000000E+00
    0.225576E-01    0.735067E-02    0.000000E+00
    0.230365E-01    0.735067E-02    0.000000E+00
    0.235201E-01    0.735067E-02    0.000000E+00
    0.240087E-01    0.735067E-02    0.000000E+00
    0.245021E-01    0.735067E-02    0.000000E+00
    0.250004E-01    0.735067E-02    0.000000E+00
    0.255037E-01    0.735067E-02    0.000000E+00
    0.206889E-01    0.758194E-02    0.000000E+00
    0.211491E-01    0.758194E-02    0.000000E+00
    0.216139E-01    0.758194E-02    0.000000E+00
    0.220834E-01    0.758194E-02    0.000000E+00
    0.225576E-01    0.758194E-02    0.000000E+00
    0.230365E-01    0.758194E-02    0.000000E+00
    0.235201E-01    0.758194E-02    0.000000E+00
    0.240087E-01    0.758194E-02    0.000000E+00
    0.245021E-01    0.758194E-02    0.000000E+00
    0.250004E-01    0.758194E-02    0.000000E+00
    0.255037E-01    0.758194E-02    0.000000E+00
    0.206889E-01    0.782015E-02    0.000000E+00
    0.211491E-01    0.782015E-02    0.000000E+00
    0.216139E-01    0.782015E-02    0.000000E+00
    0.220834E-01    0.782015E-02    0.000000E+00
    0.225576E-01    0.782015E-02    0.000000E+00
    0.230365E-01    0.782015E-02    0.000000E+00
    0.235201E-01    0.782015E-02    0.000000E+00
    0.240087E-01    0.782015E-02    0.000000E+00
    0.245021E-01    0.782015E-02    0.000000E+00
    0.250004E-01    0.782015E-02    0.000000E+00
    0.255037E-01    0.782015E-02    0.000000E+00
    0.206889E-01    0.806550E-02    0.000000E+00
    0.211491E-01    0.806550E-02    0.000000E+00
    0.216139E-01    0.806550E-02    0.000000E+00
    0.220834E-01    0.806550E-02    0.000000E+00
    0.225576E-01    0.806550E-02    0.000000E+00
    0.230365E-01    0.806550E-02    0.000000E+00
    0.235201E-01    0.806550E-02    0.000000E+00
    0.240087E-01    0.806550E-02    0.000000E+00
    0.245021E-01    0.806550E-02    0.000000E+00
    0.250004E-01    0.806550E-02    0.000000E+00
    0.255037E-01    0.806550E-02    0.000000E+00
    0.206889E-01    0.831821E-02    0.000000E+00
    0.211491E-01    0.831821E-02    0.000000E+00
    0.216139E-01    0.831821E-02    0.000000E+00
    0.220834E-01    0.831821E-02    0.000000E+00
    0.225576E-01    0.831821E-02    0.000000E+00
    0.230365E-01    0.831821E-02    0.000000E+00
    0.235201E-01    0.831821E-02    0.000000E+00
    0.240087E-01    0.831821E-02    0.000000E+00
    0.245021E-01    0.831821E-02    0.000000E+00
    0.250004E-01    0.831821E-02    0.000000E+00
    0.255037E-01    0.831821E-02    0.000000E+00
    0.206889E-01    0.857851E-02    0.000000E+00
    0.211491E-01    0.857851E-02    0.000000E+00
    0.216139E-01    0.857851E-02    0.000000E+00
    0.220834E-01    0.857851E-02    0.000000E+00
    0.225576E-01    0.857851E-02    0.000000E+00
    0.230365E-01    0.857851E-02    0.000000E+00
    0.235201E-01    0.857851E-02    0.000000E+00
    0.240087E-01    0.857851E-02    0.000000E+00
    0.245021E-01    0.857851E-02    0.000000E+00
    0.250004E-01    0.857851E-02    0.000000E+00
    0.255037E-01    0.857851E-02    0.000000E+00
    0.206889E-01    0.884661E-02    0.000000E+00
    0.211491E-01    0.884661E-02    0.000000E+00
    0.216139E-01    0.884661E-02    0.000000E+00
    0.220834E-01    0.884661E-02    0.000000E+00
    0.225576E-01    0.884661E-02    0.000000E+00
    0.230365E-01    0.884661E-02    0.000000E+00
    0.235201E-01    0.884661E-02    0.000000E+00
    0.240087E-01    0.884661E-02    0.000000E+00
    0.245021E-01    0.884661E-02    0.000000E+00
    0.250004E-01    0.884661E-02    0.000000E+00
    0.255037E-01    0.884661E-02    0.000000E+00
    0.206889E-01    0.912275E-02    0.000000E+00
    0.211491E-01    0.912275E-02    0.000000E+00
    0.216139E-01    0.912275E-02    0.000000E+00
    0.220834E-01    0.912275E-02    0.000000E+00
    0.225576E-01    0.912275E-02    0.000000E+00
    0.230365E-01    0.912275E-02    0.000000E+00
    0.235201E-01    0.912275E-02    0.000000E+00
    0.240087E-01    0.912275E-02    0.000000E+00
    0.245021E-01    0.912275E-02    0.000000E+00
    0.250004E-01    0.912275E-02    0.000000E+00
    0.255037E-01    0.912275E-02    0.000000E+00
    0.206889E-01    0.669651E-02    0.160000E-02
    0.211491E-01    0.669651E-02    0.160000E-02
    0.216139E-01    0.669651E-02    0.160000E-02
    0.220834E-01    0.669651E-02    0.160000E-02
    0.225576E-01    0.669651E-02    0.160000E-02
    0.230365E-01    0.669651E-02    0.160000E-02
    0.235201E-01    0.669651E-02    0.160000E-02
    0.240087E-01    0.669651E-02    0.160000E-02
    0.245021E-01    0.669651E-02    0.160000E-02
    0.250004E-01    0.669651E-02    0.160000E-02
    0.255037E-01    0.669651E-02    0.160000E-02
    0.206889E-01    0.690815E-02    0.160000E-02
    0.211491E-01    0.690815E-02    0.160000E-02
    0.216139E-01    0.690815E-02    0.160000E-02
    0.220834E-01    0.690815E-02    0.160000E-02
    0.225576E-01    0.690815E-02    0.160000E-02
    0.230365E-01    0.690815E-02    0.160000E-02
    0.235201E-01    0.690815E-02    0.160000E-02
    0.240087E-01    0.690815E-02    0.160000E-02
    0.245021E-01    0.690815E-02    0.160000E-02
    0.250004E-01    0.690815E-02    0.160000E-02
    0.255037E-01    0.690815E-02    0.160000E-02
    0.206889E-01    0.712614E-02    0.160000E-02
    0.211491E-01    0.712614E-02    0.160000E-02
    0.216139E-01    0.712614E-02    0.160000E-02
    0.220834E-01    0.712614E-02    0.160000E-02
    0.225576E-01    0.712614E-02    0.160000E-02
    0.230365E-01    0.712614E-02    0.160000E-02
    0.235201E-01    0.712614E-02    0.160000E-02
    0.240087E-01    0.712614E-02    0.160000E-02
    0.245021E-01    0.712614E-02    0.160000E-02
    0.250004E-01    0.712614E-02    0.160000E-02
    0.255037E-01    0.712614E-02    0.160000E-02
    0.206889E-01    0.735067E-02    0.160000E-02
    0.211491E-01    0.735067E-02    0.160000E-02
    0.216139E-01    0.735067E-02    0.160000E-02
    0.220834E-01    0.735067E-02    0.160000E-02
    0.225576E-01    0.735067E-02    0.160000E-02
    0.230365E-01    0.735067E-02    0.160000E-02
    0.235201E-01    0.735067E-02    0.160000E-02
    0.240087E-01    0.735067E-02    0.160000E-02
    0.245021E-01    0.735067E-02    0.160000E-02
    0.250004E-01    0.735067E-02    0.160000E-02
    0.255037E-01    0.735067E-02    0.160000E-02
    0.206889E-01    0.758194E-02    0.160000E-02
    0.211491E-01    0.758194E-02    0.160000E-02
    0.216139E-01    0.758194E-02    0.160000E-02
    0.220834E-01    0.758194E-02    0.160000E-02
    0.225576E-01    0.758194E-02    0.160000E-02
    0.230365E-01    0.758194E-02    0.160000E-02
    0.235201E-01    0.758194E-02    0.160000E-02
    0.240087E-01    0.758194E-02    0.160000E-02
    0.245021E-01    0.758194E-02    0.160000E-02
    0.250004E-01    0.758194E-02    0.160000E-02
    0.255037E-01    0.758194E-02    0.160000E-02
    0.206889E-01    0.782015E-02    0.160000E-02
    0.211491E-01    0.782015E-02    0.160000E-02
    0.216139E-01    0.782015E-02    0.160000E-02
    0.220834E-01    0.782015E-02    0.160000E-02
    0.225576E-01    0.782015E-02    0.160000E-02
    0.230365E-01    0.782015E-02    0.160000E-02
    0.235201E-01    0.782015E-02    0.160000E-02
    0.240087E-01    0.782015E-02    0.160000E-02
    0.245021E-01    0.782015E-02    0.160000E-02
    0.250004E-01    0.782015E-02    0.160000E-02
    0.255037E-01    0.782015E-02    0.160000E-02
    0.206889E-01    0.806550E-02    0.160000E-02
    0.211491E-01    0.806550E-02    0.160000E-02
    0.216139E-01    0.806550E-02    0.160000E-02
    0.220834E-01    0.806550E-02    0.160000E-02
    0.225576E-01    0.806550E-02    0.160000E-02
    0.230365E-01    0.806550E-02    0.160000E-02
    0.235201E-01    0.806550E-02    0.160000E-02
    0.240087E-01    0.806550E-02    0.160000E-02
    0.245021E-01    0.806550E-02    0.160000E-02
    0.250004E-01    0.806550E-02    0.160000E-02
    0.255037E-01    0.806550E-02    0.160000E-02
    0.206889E-01    0.831821E-02    0.160000E-02
    0.211491E-01    0.831821E-02    0.160000E-02
    0.216139E-01    0.831821E-02    0.160000E-02
    0.220834E-01    0.831821E-02    0.160000E-02
    0.225576E-01    0.831821E-02    0.160000E-02
    0.230365E-01    0.831821E-02    0.160000E-02
    0.235201E-01    0.831821E-02    0.160000E-02
    0.240087E-01    0.831821E-02    0.160000E-02
    0.245021E-01    0.831821E-02    0.160000E-02
    0.250004E-01    0.831821E-02    0.160000E-02
    0.255037E-01    0.831821E-02    0.160000E-02
    0.206889E-01    0.857851E-02    0.160000E-02
    0.211491E-01    0.857851E-02    0.160000E-02
    0.216139E-01    0.857851E-02    0.160000E-02
    0.220834E-01    0.857851E-02    0.160000E-02
    0.225576E-01    0.857851E-02    0.160000E-02
    0.230365E-01    0.857851E-02    0.160000E-02
    0.235201E-01    0.857851E-02    0.160000E-02
    0.240087E-01    0.857851E-02    0.160000E-02
    0.245021E-01    0.857851E-02    0.160000E-02
    0.250004E-01    0.857851E-02    0.160000E-02
    0.255037E-01    0.857851E-02    0.160000E-02
    0.206889E-01    0.884661E-02    0.160000E-02
    0.211491E-01    0.884661E-02    0.160000E-02
    0.216139E-01    0.884661E-02    0.160000E-02
    0.220834E-01    0.884661E-02    0.160000E-02
    0.225576E-01    0.884661E-02    0.160000E-02
    0.230365E-01    0.884661E-02    0.160000E-02
    0.235201E-01    0.884661E-02    0.160000E-02
    0.240087E-01    0.884661E-02    0.160000E-02
    0.245021E-01    0.884661E-02    0.160000E-02
    0.250004E-01    0.884661E-02    0.160000E-02
    0.255037E-01    0.884661E-02    0.160000E-02
    0.206889E-01    0.912275E-02    0.160000E-02
    0.211491E-01    0.912275E-02    0.160000E-02
    0.216139E-01    0.912275E-02    0.160000E-02
    0.220834E-01    0.912275E-02    0.160000E-02
    0.225576E-01    0.912275E-02    0.160000E-02
    0.230365E-01    0.912275E-02    0.160000E-02
    0.235201E-01    0.912275E-02    0.160000E-02
    0.240087E-01    0.912275E-02    0.160000E-02
    0.245021E-01    0.912275E-02    0.160000E-02
    0.250004E-01    0.912275E-02    0.160000E-02
    0.255037E-01    0.912275E-02    0.160000E-02
</DataArray>
</Points>
<PointData>
<DataArray Name="Velocity" type="Float64" format="ascii" NumberOfComponents="3">
    0.873353E-01    0.433325E-02    0.000000E+00
    0.874575E-01    0.350171E-02    0.000000E+00
    0.875573E-01    0.274152E-02    0.000000E+00
    0.876373E-01    0.215088E-02    0.000000E+00
    0.877004E-01    0.169539E-02    0.000000E+00
    0.877490E-01    0.134520E-02    0.000000E+00
    0.877856E-01    0.107559E-02    0.000000E+00
    0.878126E-01    0.866734E-03    0.000000E+00
    0.878320E-01    0.703252E-03    0.000000E+00
    0.878457E-01    0.573501E-03    0.000000E+00
    0.878554E-01    0.468873E-03    0.000000E+00
    0.871846E-01    0.413780E-02    0.000000E+00
    0.873347E-01    0.334421E-02    0.000000E+00
    0.874550E-01    0.261858E-02    0.000000E+00
    0.875505E-01    0.205493E-02    0.000000E+00
    0.876256E-01    0.162046E-02    0.000000E+00
    0.876838E-01    0.128663E-02    0.000000E+00
    0.877284E-01    0.102969E-02    0.000000E+00
    0.877623E-01    0.830627E-03    0.000000E+00
    0.877878E-01    0.674691E-03    0.000000E+00
    0.878070E-01    0.550745E-03    0.000000E+00
    0.878216E-01    0.450565E-03    0.000000E+00
    0.871742E-01    0.394768E-02    0.000000E+00
    0.873192E-01    0.319259E-02    0.000000E+00
    0.874331E-01    0.250120E-02    0.000000E+00
    0.875226E-01    0.196362E-02    0.000000E+00
    0.875930E-01    0.154905E-02    0.000000E+00
    0.876484E-01    0.123043E-02    0.000000E+00
    0.876920E-01    0.985174E-03    0.000000E+00
    0.877263E-01    0.795113E-03    0.000000E+00
    0.877533E-01    0.646140E-03    0.000000E+00
    0.877749E-01    0.527598E-03    0.000000E+00
    0.877922E-01    0.431622E-03    0.000000E+00
    0.871214E-01    0.375938E-02    0.000000E+00
    0.872684E-01    0.304351E-02    0.000000E+00
    0.873822E-01    0.238639E-02    0.000000E+00
    0.874713E-01    0.187444E-02    0.000000E+00
    0.875418E-01    0.147908E-02    0.000000E+00
    0.875981E-01    0.117497E-02    0.000000E+00
    0.876435E-01    0.940750E-03    0.000000E+00
    0.876804E-01    0.759179E-03    0.000000E+00
    0.877108E-01    0.616798E-03    0.000000E+00
    0.877359E-01    0.503425E-03    0.000000E+00
    0.877571E-01    0.411528E-03    0.000000E+00
    0.870331E-01    0.356968E-02    0.000000E+00
    0.871881E-01    0.289386E-02    0.000000E+00
    0.873075E-01    0.227138E-02    0.000000E+00
    0.874011E-01    0.178502E-02    0.000000E+00
    0.874757E-01    0.140863E-02    0.000000E+00
    0.875362E-01    0.111871E-02    0.000000E+00
    0.875860E-01    0.895231E-03    0.000000E+00
    0.876275E-01    0.721909E-03    0.000000E+00
    0.876626E-01    0.585962E-03    0.000000E+00
    0.876925E-01    0.477680E-03    0.000000E+00
    0.877183E-01    0.389854E-03    0.000000E+00
    0.869151E-01    0.337571E-02    0.000000E+00
    0.870830E-01    0.274079E-02    0.000000E+00
    0.872130E-01    0.215358E-02    0.000000E+00
    0.873155E-01    0.169316E-02    0.000000E+00
    0.873979E-01    0.133591E-02    0.000000E+00
    0.874655E-01    0.106023E-02    0.000000E+00
    0.875220E-01    0.847519E-03    0.000000E+00
    0.875698E-01    0.682471E-03    0.000000E+00
    0.876108E-01    0.553005E-03    0.000000E+00
    0.876463E-01    0.449890E-03    0.000000E+00
    0.876773E-01    0.366241E-03    0.000000E+00
    0.867718E-01    0.317489E-02    0.000000E+00
    0.869572E-01    0.258172E-02    0.000000E+00
    0.871020E-01    0.203061E-02    0.000000E+00
    0.872172E-01    0.159680E-02    0.000000E+00
    0.873107E-01    0.125921E-02    0.000000E+00
    0.873881E-01    0.998205E-03    0.000000E+00
    0.874531E-01    0.796591E-03    0.000000E+00
    0.875087E-01    0.640101E-03    0.000000E+00
    0.875566E-01    0.517368E-03    0.000000E+00
    0.875985E-01    0.419633E-03    0.000000E+00
    0.876352E-01    0.340384E-03    0.000000E+00
    0.866060E-01    0.296492E-02    0.000000E+00
    0.868127E-01    0.241424E-02    0.000000E+00
    0.869763E-01    0.190021E-02    0.000000E+00
    0.871078E-01    0.149397E-02    0.000000E+00
    0.872154E-01    0.117692E-02    0.000000E+00
    0.873049E-01    0.931340E-03    0.000000E+00
    0.873804E-01    0.741469E-03    0.000000E+00
    0.874450E-01    0.594073E-03    0.000000E+00
    0.875009E-01    0.478520E-03    0.000000E+00
    0.875497E-01    0.386559E-03    0.000000E+00
    0.875926E-01    0.312013E-03    0.000000E+00
    0.864184E-01    0.274355E-02    0.000000E+00
    0.866501E-01    0.223599E-02    0.000000E+00
    0.868362E-01    0.176013E-02    0.000000E+00
    0.869875E-01    0.138270E-02    0.000000E+00
    0.871121E-01    0.108741E-02    0.000000E+00
    0.872160E-01    0.858351E-03    0.000000E+00
    0.873038E-01    0.681172E-03    0.000000E+00
    0.873788E-01    0.543667E-03    0.000000E+00
    0.874435E-01    0.435941E-03    0.000000E+00
    0.874997E-01    0.350278E-03    0.000000E+00
    0.875492E-01    0.280875E-03    0.000000E+00
    0.862064E-01    0.250835E-02    0.000000E+00
    0.864671E-01    0.204445E-02    0.000000E+00
    0.866798E-01    0.160799E-02    0.000000E+00
    0.868546E-01    0.126090E-02    0.000000E+00
    0.869993E-01    0.988939E-03    0.000000E+00
    0.871201E-01    0.777875E-03    0.000000E+00
    0.872220E-01    0.614668E-03    0.000000E+00
    0.873087E-01    0.488124E-03    0.000000E+00
    0.873832E-01    0.389083E-03    0.000000E+00
    0.874477E-01    0.310392E-03    0.000000E+00
    0.875042E-01    0.246682E-03    0.000000E+00
    0.859631E-01    0.225624E-02    0.000000E+00
    0.862582E-01    0.183653E-02    0.000000E+00
    0.865025E-01    0.144096E-02    0.000000E+00
    0.867051E-01    0.112615E-02    0.000000E+00
    0.868735E-01    0.879541E-03    0.000000E+00
    0.870141E-01    0.688355E-03    0.000000E+00
    0.871323E-01    0.540766E-03    0.000000E+00
    0.872324E-01    0.426547E-03    0.000000E+00
    0.873178E-01    0.337284E-03    0.000000E+00
    0.873914E-01    0.266420E-03    0.000000E+00
    0.874555E-01    0.209083E-03    0.000000E+00
    0.873876E-01    0.446888E-02   -0.109456E-17
    0.874991E-01    0.350171E-02   -0.857673E-18
    0.875903E-01    0.274152E-02   -0.671479E-18
    0.876638E-01    0.215088E-02   -0.526814E-18
    0.877217E-01    0.169539E-02   -0.415250E-18
    0.877663E-01    0.134520E-02   -0.329480E-18
    0.877998E-01    0.107559E-02   -0.263443E-18
    0.878243E-01    0.866734E-03   -0.212289E-18
    0.878418E-01    0.703252E-03   -0.172247E-18
    0.878540E-01    0.573501E-03   -0.140467E-18
    0.878624E-01    0.468873E-03   -0.114841E-18
    0.871846E-01    0.426721E-02   -0.104516E-17
    0.873347E-01    0.334421E-02   -0.819095E-18
    0.874550E-01    0.261858E-02   -0.641368E-18
    0.875505E-01    0.205493E-02   -0.503313E-18
    0.876256E-01    0.162046E-02   -0.396899E-18
    0.876838E-01    0.128663E-02   -0.315133E-18
    0.877284E-01    0.102969E-02   -0.252201E-18
    0.877623E-01    0.830627E-03   -0.203445E-18
    0.877878E-01    0.674691E-03   -0.165252E-18
    0.878070E-01    0.550745E-03   -0.134894E-18
    0.878216E-01    0.450565E-03   -0.110357E-18
    0.871742E-01    0.407070E-02   -0.997033E-18
    0.873192E-01    0.319259E-02   -0.781960E-18
    0.874331E-01    0.250120E-02   -0.612617E-18
    0.875226E-01    0.196362E-02   -0.480949E-18
    0.875930E-01    0.154905E-02   -0.379408E-18
    0.876484E-01    0.123043E-02   -0.301369E-18
    0.876920E-01    0.985174E-03   -0.241298E-18
    0.877263E-01    0.795113E-03   -0.194747E-18
    0.877533E-01    0.646140E-03   -0.158259E-18
    0.877749E-01    0.527598E-03   -0.129224E-18
    0.877922E-01    0.431622E-03   -0.105717E-18
    0.871214E-01    0.387582E-02   -0.949303E-18
    0.872684E-01    0.304351E-02   -0.745446E-18
    0.873822E-01    0.238639E-02   -0.584497E-18
    0.874713E-01    0.187444E-02   -0.459105E-18
    0.875418E-01    0.147908E-02   -0.362270E-18
    0.875981E-01    0.117497E-02   -0.287784E-18
    0.876435E-01    0.940750E-03   -0.230417E-18
    0.876804E-01    0.759179E-03   -0.185945E-18
    0.877108E-01    0.616798E-03   -0.151072E-18
    0.877359E-01    0.503425E-03   -0.123304E-18
    0.877571E-01    0.411528E-03   -0.100795E-18
    0.870331E-01    0.367938E-02   -0.901189E-18
    0.871881E-01    0.289386E-02   -0.708791E-18
    0.873075E-01    0.227138E-02   -0.556327E-18
    0.874011E-01    0.178502E-02   -0.437203E-18
    0.874757E-01    0.140863E-02   -0.345015E-18
    0.875362E-01    0.111871E-02   -0.274004E-18
    0.875860E-01    0.895231E-03   -0.219268E-18
    0.876275E-01    0.721909E-03   -0.176817E-18
    0.876626E-01    0.585962E-03   -0.143519E-18
    0.876925E-01    0.477680E-03   -0.116998E-18
    0.877183E-01    0.389854E-03   -0.954867E-19
    0.869151E-01    0.347851E-02   -0.851989E-18
    0.870830E-01    0.274079E-02   -0.671300E-18
    0.872130E-01    0.215358E-02   -0.527475E-18
    0.873155E-01    0.169316E-02   -0.414704E-18
    0.873979E-01    0.133591E-02   -0.327203E-18
    0.874655E-01    0.106023E-02   -0.259682E-18
    0.875220E-01    0.847519E-03   -0.207582E-18
    0.875698E-01    0.682471E-03   -0.167157E-18
    0.876108E-01    0.553005E-03   -0.135447E-18
    0.876463E-01    0.449890E-03   -0.110191E-18
    0.876773E-01    0.366241E-03   -0.897031E-19
    0.867718E-01    0.327067E-02   -0.801082E-18
    0.869572E-01    0.258172E-02   -0.632338E-18
    0.871020E-01    0.203061E-02   -0.497356E-18
    0.872172E-01    0.159680E-02   -0.391103E-18
    0.873107E-01    0.125921E-02   -0.308419E-18
    0.873881E-01    0.998205E-03   -0.244490E-18
    0.874531E-01    0.796591E-03   -0.195109E-18
    0.875087E-01    0.640101E-03   -0.156779E-18
    0.875566E-01    0.517368E-03   -0.126719E-18
    0.875985E-01    0.419633E-03   -0.102780E-18
    0.876352E-01    0.340384E-03   -0.833700E-19
    0.866060E-01    0.305358E-02   -0.747911E-18
    0.868127E-01    0.241424E-02   -0.591317E-18
    0.869763E-01    0.190021E-02   -0.465417E-18
    0.871078E-01    0.149397E-02   -0.365916E-18
    0.872154E-01    0.117692E-02   -0.288263E-18
    0.873049E-01    0.931340E-03   -0.228113E-18
    0.873804E-01    0.741469E-03   -0.181607E-18
    0.874450E-01    0.594073E-03   -0.145506E-18
    0.875009E-01    0.478520E-03   -0.117204E-18
    0.875497E-01    0.386559E-03   -0.946796E-19
    0.875926E-01    0.312013E-03   -0.764211E-19
    0.864184E-01    0.282504E-02   -0.691936E-18
    0.866501E-01    0.223599E-02   -0.547660E-18
    0.868362E-01    0.176013E-02   -0.431107E-18
    0.869875E-01    0.138270E-02   -0.338663E-18
    0.871121E-01    0.108741E-02   -0.266338E-18
    0.872160E-01    0.858351E-03   -0.210235E-18
    0.873038E-01    0.681172E-03   -0.166839E-18
    0.873788E-01    0.543667E-03   -0.133160E-18
    0.874435E-01    0.435941E-03   -0.106775E-18
    0.874997E-01    0.350278E-03   -0.857934E-19
    0.875492E-01    0.280875E-03   -0.687945E-19
    0.862064E-01    0.258266E-02   -0.632570E-18
    0.864671E-01    0.204445E-02   -0.500745E-18
    0.866798E-01    0.160799E-02   -0.393843E-18
    0.868546E-01    0.126090E-02   -0.308831E-18
    0.869993E-01    0.988939E-03   -0.242220E-18
    0.871201E-01    0.777875E-03   -0.190525E-18
    0.872220E-01    0.614668E-03   -0.150550E-18
    0.873087E-01    0.488124E-03   -0.119556E-18
    0.873832E-01    0.389083E-03   -0.952978E-19
    0.874477E-01    0.310392E-03   -0.760240E-19
    0.875042E-01    0.246682E-03   -0.604197E-19
    0.859631E-01    0.232338E-02   -0.569065E-18
    0.862582E-01    0.183653E-02   -0.449820E-18
    0.865025E-01    0.144096E-02   -0.352934E-18
    0.867051E-01    0.112615E-02   -0.275827E-18
    0.868735E-01    0.879541E-03   -0.215425E-18
    0.870141E-01    0.688355E-03   -0.168598E-18
    0.871323E-01    0.540766E-03   -0.132449E-18
    0.872324E-01    0.426547E-03   -0.104474E-18
    0.873178E-01    0.337284E-03   -0.826107E-19
    0.873914E-01    0.266420E-03   -0.652540E-19
    0.874555E-01    0.209083E-03   -0.512107E-19
</DataArray>
</PointData>
<CellData>
<DataArray Name="DP" type="Float64" format="ascii" NumberOfComponents="1">
      0.000000E+0000
      0.000000E+0000
      0.000000E+0000
      0.000000E+0000
      0.000000E+0000
      0.000000E+0000
      0.000000E+0000
      0.000000E+0000
      0.000000E+0000
      0.000000E+0000
      0.000000E+0000
      0.000000E+0000
      0.000000E+0000
      0.000000E+0000
      0.000000E+0000
      0.000000E+0000
      0.000000E+0000
      0.000000E+0000
      0.000000E+0000
      0.000000E+0000
      0.000000E+0000
      0.000000E+0000
      0.000000E+0000
      0.000000E+0000
      0.000000E+0000
      0.000000E+0000
      0.000000E+0000
      0.000000E+0000
      0.000000E+0000
      0.000000E+0000
      0.000000E+0000
      0.000000E+0000
      0.000000E+0000
      0.000000E+0000
      0.000000E+0000
      0.000000E+0000
      0.000000E+0000
      0.000000E+0000
      0.000000E+0000
      0.000000E+0000
      0.000000E+0000
      0.000000E+0000
      0.000000E+0000
      0.000000E+0000
      0.000000E+0000
      0.000000E+0000
      0.000000E+0000
      0.000000E+0000
      0.000000E+0000
      0.000000E+0000
      0.000000E+0000
      0.000000E+0000
      0.000000E+0000
      0.000000E+0000
      0.000000E+0000
      0.000000E+0000
      0.000000E+0000
      0.000000E+0000
      0.000000E+0000
      0.000000E+0000
      0.000000E+0000
      0.000000E+0000
      0.000000E+0000
      0.000000E+0000
      0.000000E+0000
      0.000000E+0000
      0.000000E+0000
      0.000000E+0000
      0.000000E+0000
      0.000000E+0000
      0.000000E+0000
      0.000000E+0000
      0.000000E+0000
      0.000000E+0000
      0.000000E+0000
      0.000000E+0000
      0.000000E+0000
      0.000000E+0000
      0.000000E+0000
      0.000000E+0000
      0.000000E+0000
      0.000000E+0000
      0.000000E+0000
      0.000000E+0000
      0.000000E+0000
      0.000000E+0000
      0.000000E+0000
      0.000000E+0000
      0.000000E+0000
      0.000000E+0000
      0.000000E+0000
      0.000000E+0000
      0.000000E+0000
      0.000000E+0000
      0.000000E+0000
      0.000000E+0000
      0.000000E+0000
      0.000000E+0000
      0.000000E+0000
      0.000000E+0000
</DataArray>
<DataArray Name="P" type="Float64" format="ascii" NumberOfComponents="1">
      0.393617E+0000
      0.388243E+0000
      0.382819E+0000
      0.377345E+0000
      0.371820E+0000
      0.366245E+0000
      0.360617E+0000
      0.354936E+0000
      0.349198E+0000
      0.343403E+0000
      0.393578E+0000
      0.388209E+0000
      0.382789E+0000
      0.377318E+0000
      0.371797E+0000
      0.366224E+0000
      0.360598E+0000
      0.354917E+0000
      0.349181E+0000
      0.343387E+0000
      0.393540E+0000
      0.388175E+0000
      0.382759E+0000
      0.377292E+0000
      0.371773E+0000
      0.366202E+0000
      0.360577E+0000
      0.354898E+0000
      0.349163E+0000
      0.343372E+0000
      0.393501E+0000
      0.388140E+0000
      0.382728E+0000
      0.377264E+0000
      0.371748E+0000
      0.366179E+0000
      0.360557E+0000
      0.354879E+0000
      0.349146E+0000
      0.343356E+0000
      0.393462E+0000
      0.388105E+0000
      0.382697E+0000
      0.377236E+0000
      0.371723E+0000
      0.366156E+0000
      0.360536E+0000
      0.354860E+0000
      0.349128E+0000
      0.343339E+0000
      0.393422E+0000
      0.388070E+0000
      0.382665E+0000
      0.377208E+0000
      0.371697E+0000
      0.366133E+0000
      0.360514E+0000
      0.354840E+0000
      0.349110E+0000
      0.343323E+0000
      0.393383E+0000
      0.388035E+0000
      0.382634E+0000
      0.377179E+0000
      0.371671E+0000
      0.366109E+0000
      0.360493E+0000
      0.354820E+0000
      0.349092E+0000
      0.343306E+0000
      0.393344E+0000
      0.388000E+0000
      0.382602E+0000
      0.377150E+0000
      0.371645E+0000
      0.366085E+0000
      0.360471E+0000
      0.354800E+0000
      0.349073E+0000
      0.343289E+0000
      0.393305E+0000
      0.387964E+0000
      0.382570E+0000
      0.377121E+0000
      0.371619E+0000
      0.366061E+0000
      0.360449E+0000
      0.354780E+0000
      0.349055E+0000
      0.343272E+0000
      0.393267E+0000
      0.387929E+0000
      0.382537E+0000
      0.377092E+0000
      0.371592E+0000
      0.366037E+0000
      0.360427E+0000
      0.354760E+0000
      0.349036E+0000
      0.343255E+0000
</DataArray>
<DataArray Name="RHO" type="Float64" format="ascii" NumberOfComponents="1">
      0.117439E+0001
      0.117388E+0001
      0.117343E+0001
      0.117305E+0001
      0.117275E+0001
      0.117252E+0001
      0.117235E+0001
      0.117222E+0001
      0.117213E+0001
      0.117207E+0001
      0.117412E+0001
      0.117367E+0001
      0.117328E+0001
      0.117294E+0001
      0.117268E+0001
      0.117247E+0001
      0.117231E+0001
      0.117220E+0001
      0.117212E+0001
      0.117206E+0001
      0.117385E+0001
      0.117348E+0001
      0.117313E+0001
      0.117284E+0001
      0.117260E+0001
      0.117242E+0001
      0.117228E+0001
      0.117218E+0001
      0.117210E+0001
      0.117205E+0001
      0.117361E+0001
      0.117329E+0001
      0.117299E+0001
      0.117274E+0001
      0.117253E+0001
      0.117237E+0001
      0.117224E+0001
      0.117215E+0001
      0.117209E+0001
      0.117204E+0001
      0.117337E+0001
      0.117311E+0001
      0.117286E+0001
      0.117264E+0001
      0.117246E+0001
      0.117232E+0001
      0.117221E+0001
      0.117213E+0001
      0.117208E+0001
      0.117204E+0001
      0.117316E+0001
      0.117294E+0001
      0.117274E+0001
      0.117255E+0001
      0.117240E+0001
      0.117228E+0001
      0.117218E+0001
      0.117211E+0001
      0.117206E+0001
      0.117203E+0001
      0.117296E+0001
      0.117279E+0001