<?xml version="1.0"?>
<VTKFile type="StructuredGrid" version="0.1" byte_order="LittleEndian">
<StructuredGrid WholeExtent="         110         120          20          30           0           1">
<Piece Extent="         110         120          20          30           0           1">
<Points>
<DataArray NumberOfComponents="3" type="Float64" format="ascii">
    0.503557E-01    0.480136E-02    0.000000E+00
    0.511126E-01    0.480136E-02    0.000000E+00
    0.518770E-01    0.480136E-02    0.000000E+00
    0.526491E-01    0.480136E-02    0.000000E+00
    0.534289E-01    0.480136E-02    0.000000E+00
    0.542166E-01    0.480136E-02    0.000000E+00
    0.550121E-01    0.480136E-02    0.000000E+00
    0.558155E-01    0.480136E-02    0.000000E+00
    0.566270E-01    0.480136E-02    0.000000E+00
    0.574466E-01    0.480136E-02    0.000000E+00
    0.582744E-01    0.480136E-02    0.000000E+00
    0.503557E-01    0.499423E-02    0.000000E+00
    0.511126E-01    0.499423E-02    0.000000E+00
    0.518770E-01    0.499423E-02    0.000000E+00
    0.526491E-01    0.499423E-02    0.000000E+00
    0.534289E-01    0.499423E-02    0.000000E+00
    0.542166E-01    0.499423E-02    0.000000E+00
    0.550121E-01    0.499423E-02    0.000000E+00
    0.558155E-01    0.499423E-02    0.000000E+00
    0.566270E-01    0.499423E-02    0.000000E+00
    0.574466E-01    0.499423E-02    0.000000E+00
    0.582744E-01    0.499423E-02    0.000000E+00
    0.503557E-01    0.518324E-02    0.000000E+00
    0.511126E-01    0.518324E-02    0.000000E+00
    0.518770E-01    0.518324E-02    0.000000E+00
    0.526491E-01    0.518324E-02    0.000000E+00
    0.534289E-01    0.518324E-02    0.000000E+00
    0.542166E-01    0.518324E-02    0.000000E+00
    0.550121E-01    0.518324E-02    0.000000E+00
    0.558155E-01    0.518324E-02    0.000000E+00
    0.566270E-01    0.518324E-02    0.000000E+00
    0.574466E-01    0.518324E-02    0.000000E+00
    0.582744E-01    0.518324E-02    0.000000E+00
    0.503557E-01    0.536847E-02    0.000000E+00
    0.511126E-01    0.536847E-02    0.000000E+00
    0.518770E-01    0.536847E-02    0.000000E+00
    0.526491E-01    0.536847E-02    0.000000E+00
    0.534289E-01    0.536847E-02    0.000000E+00
    0.542166E-01    0.536847E-02    0.000000E+00
    0.550121E-01    0.536847E-02    0.000000E+00
    0.558155E-01    0.536847E-02    0.000000E+00
    0.566270E-01    0.536847E-02    0.000000E+00
    0.574466E-01    0.536847E-02    0.000000E+00
    0.582744E-01    0.536847E-02    0.000000E+00
    0.503557E-01    0.555000E-02    0.000000E+00
    0.511126E-01    0.555000E-02    0.000000E+00
    0.518770E-01    0.555000E-02    0.000000E+00
    0.526491E-01    0.555000E-02    0.000000E+00
    0.534289E-01    0.555000E-02    0.000000E+00
    0.542166E-01    0.555000E-02    0.000000E+00
    0.550121E-01    0.555000E-02    0.000000E+00
    0.558155E-01    0.555000E-02    0.000000E+00
    0.566270E-01    0.555000E-02    0.000000E+00
    0.574466E-01    0.555000E-02    0.000000E+00
    0.582744E-01    0.555000E-02    0.000000E+00
    0.503557E-01    0.572725E-02    0.000000E+00
    0.511126E-01    0.572725E-02    0.000000E+00
    0.518770E-01    0.572725E-02    0.000000E+00
    0.526491E-01    0.572725E-02    0.000000E+00
    0.534289E-01    0.572725E-02    0.000000E+00
    0.542166E-01    0.572725E-02    0.000000E+00
    0.550121E-01    0.572725E-02    0.000000E+00
    0.558155E-01    0.572725E-02    0.000000E+00
    0.566270E-01    0.572725E-02    0.000000E+00
    0.574466E-01    0.572725E-02    0.000000E+00
    0.582744E-01    0.572725E-02    0.000000E+00
    0.503557E-01    0.590981E-02    0.000000E+00
    0.511126E-01    0.590981E-02    0.000000E+00
    0.518770E-01    0.590981E-02    0.000000E+00
    0.526491E-01    0.590981E-02    0.000000E+00
    0.534289E-01    0.590981E-02    0.000000E+00
    0.542166E-01    0.590981E-02    0.000000E+00
    0.550121E-01    0.590981E-02    0.000000E+00
    0.558155E-01    0.590981E-02    0.000000E+00
    0.566270E-01    0.590981E-02    0.000000E+00
    0.574466E-01    0.590981E-02    0.000000E+00
    0.582744E-01    0.590981E-02    0.000000E+00
    0.503557E-01    0.609785E-02    0.000000E+00
    0.511126E-01    0.609785E-02    0.000000E+00
    0.518770E-01    0.609785E-02    0.000000E+00
    0.526491E-01    0.609785E-02    0.000000E+00
    0.534289E-01    0.609785E-02    0.000000E+00
    0.542166E-01    0.609785E-02    0.000000E+00
    0.550121E-01    0.609785E-02    0.000000E+00
    0.558155E-01    0.609785E-02    0.000000E+00
    0.566270E-01    0.609785E-02    0.000000E+00
    0.574466E-01    0.609785E-02    0.000000E+00
    0.582744E-01    0.609785E-02    0.000000E+00
    0.503557E-01    0.629154E-02    0.000000E+00
    0.511126E-01    0.629154E-02    0.000000E+00
    0.518770E-01    0.629154E-02    0.000000E+00
    0.526491E-01    0.629154E-02    0.000000E+00
    0.534289E-01    0.629154E-02    0.000000E+00
    0.542166E-01    0.629154E-02    0.000000E+00
    0.550121E-01    0.629154E-02    0.000000E+00
    0.558155E-01    0.629154E-02    0.000000E+00
    0.566270E-01    0.629154E-02    0.000000E+00
    0.574466E-01    0.629154E-02    0.000000E+00
    0.582744E-01    0.629154E-02    0.000000E+00
    0.503557E-01    0.649103E-02    0.000000E+00
    0.511126E-01    0.649103E-02    0.000000E+00
    0.518770E-01    0.649103E-02    0.000000E+00
    0.526491E-01    0.649103E-02    0.000000E+00
    0.534289E-01    0.649103E-02    0.000000E+00
    0.542166E-01    0.649103E-02    0.000000E+00
    0.550121E-01    0.649103E-02    0.000000E+00
    0.558155E-01    0.649103E-02    0.000000E+00
    0.566270E-01    0.649103E-02    0.000000E+00
    0.574466E-01    0.649103E-02    0.000000E+00
    0.582744E-01    0.649103E-02    0.000000E+00
    0.503557E-01    0.669651E-02    0.000000E+00
    0.511126E-01    0.669651E-02    0.000000E+00
    0.518770E-01    0.669651E-02    0.000000E+00
    0.526491E-01    0.669651E-02    0.000000E+00
    0.534289E-01    0.669651E-02    0.000000E+00
    0.542166E-01    0.669651E-02    0.000000E+00
    0.550121E-01    0.669651E-02    0.000000E+00
    0.558155E-01    0.669651E-02    0.000000E+00
    0.566270E-01    0.669651E-02    0.000000E+00
    0.574466E-01    0.669651E-02    0.000000E+00
    0.582744E-01    0.669651E-02    0.000000E+00
    0.503557E-01    0.480136E-02    0.160000E-02
    0.511126E-01    0.480136E-02    0.160000E-02
    0.518770E-01    0.480136E-02    0.160000E-02
    0.526491E-01    0.480136E-02    0.160000E-02
    0.534289E-01    0.480136E-02    0.160000E-02
    0.542166E-01    0.480136E-02    0.160000E-02
    0.550121E-01    0.480136E-02    0.160000E-02
    0.558155E-01    0.480136E-02    0.160000E-02
    0.566270E-01    0.480136E-02    0.160000E-02
    0.574466E-01    0.480136E-02    0.160000E-02
    0.582744E-01    0.480136E-02    0.160000E-02
    0.503557E-01    0.499423E-02    0.160000E-02
    0.511126E-01    0.499423E-02    0.160000E-02
    0.518770E-01    0.499423E-02    0.160000E-02
    0.526491E-01    0.499423E-02    0.160000E-02
    0.534289E-01    0.499423E-02    0.160000E-02
    0.542166E-01    0.499423E-02    0.160000E-02
    0.550121E-01    0.499423E-02    0.160000E-02
    0.558155E-01    0.499423E-02    0.160000E-02
    0.566270E-01    0.499423E-02    0.160000E-02
    0.574466E-01    0.499423E-02    0.160000E-02
    0.582744E-01    0.499423E-02    0.160000E-02
    0.503557E-01    0.518324E-02    0.160000E-02
    0.511126E-01    0.518324E-02    0.160000E-02
    0.518770E-01    0.518324E-02    0.160000E-02
    0.526491E-01    0.518324E-02    0.160000E-02
    0.534289E-01    0.518324E-02    0.160000E-02
    0.542166E-01    0.518324E-02    0.160000E-02
    0.550121E-01    0.518324E-02    0.160000E-02
    0.558155E-01    0.518324E-02    0.160000E-02
    0.566270E-01    0.518324E-02    0.160000E-02
    0.574466E-01    0.518324E-02    0.160000E-02
    0.582744E-01    0.518324E-02    0.160000E-02
    0.503557E-01    0.536847E-02    0.160000E-02
    0.511126E-01    0.536847E-02    0.160000E-02
    0.518770E-01    0.536847E-02    0.160000E-02
    0.526491E-01    0.536847E-02    0.160000E-02
    0.534289E-01    0.536847E-02    0.160000E-02
    0.542166E-01    0.536847E-02    0.160000E-02
    0.550121E-01    0.536847E-02    0.160000E-02
    0.558155E-01    0.536847E-02    0.160000E-02
    0.566270E-01    0.536847E-02    0.160000E-02
    0.574466E-01    0.536847E-02    0.160000E-02
    0.582744E-01    0.536847E-02    0.160000E-02
    0.503557E-01    0.555000E-02    0.160000E-02
    0.511126E-01    0.555000E-02    0.160000E-02
    0.518770E-01    0.555000E-02    0.160000E-02
    0.526491E-01    0.555000E-02    0.160000E-02
    0.534289E-01    0.555000E-02    0.160000E-02
    0.542166E-01    0.555000E-02    0.160000E-02
    0.550121E-01    0.555000E-02    0.160000E-02
    0.558155E-01    0.555000E-02    0.160000E-02
    0.566270E-01    0.555000E-02    0.160000E-02
    0.574466E-01    0.555000E-02    0.160000E-02
    0.582744E-01    0.555000E-02    0.160000E-02
    0.503557E-01    0.572725E-02    0.160000E-02
    0.511126E-01    0.572725E-02    0.160000E-02
    0.518770E-01    0.572725E-02    0.160000E-02
    0.526491E-01    0.572725E-02    0.160000E-02
    0.534289E-01    0.572725E-02    0.160000E-02
    0.542166E-01    0.572725E-02    0.160000E-02
    0.550121E-01    0.572725E-02    0.160000E-02
    0.558155E-01    0.572725E-02    0.160000E-02
    0.566270E-01    0.572725E-02    0.160000E-02
    0.574466E-01    0.572725E-02    0.160000E-02
    0.582744E-01    0.572725E-02    0.160000E-02
    0.503557E-01    0.590981E-02    0.160000E-02
    0.511126E-01    0.590981E-02    0.160000E-02
    0.518770E-01    0.590981E-02    0.160000E-02
    0.526491E-01    0.590981E-02    0.160000E-02
    0.534289E-01    0.590981E-02    0.160000E-02
    0.542166E-01    0.590981E-02    0.160000E-02
    0.550121E-01    0.590981E-02    0.160000E-02
    0.558155E-01    0.590981E-02    0.160000E-02
    0.566270E-01    0.590981E-02    0.160000E-02
    0.574466E-01    0.590981E-02    0.160000E-02
    0.582744E-01    0.590981E-02    0.160000E-02
    0.503557E-01    0.609785E-02    0.160000E-02
    0.511126E-01    0.609785E-02    0.160000E-02
    0.518770E-01    0.609785E-02    0.160000E-02
    0.526491E-01    0.609785E-02    0.160000E-02
    0.534289E-01    0.609785E-02    0.160000E-02
    0.542166E-01    0.609785E-02    0.160000E-02
    0.550121E-01    0.609785E-02    0.160000E-02
    0.558155E-01    0.609785E-02    0.160000E-02
    0.566270E-01    0.609785E-02    0.160000E-02
    0.574466E-01    0.609785E-02    0.160000E-02
    0.582744E-01    0.609785E-02    0.160000E-02
    0.503557E-01    0.629154E-02    0.160000E-02
    0.511126E-01    0.629154E-02    0.160000E-02
    0.518770E-01    0.629154E-02    0.160000E-02
    0.526491E-01    0.629154E-02    0.160000E-02
    0.534289E-01    0.629154E-02    0.160000E-02
    0.542166E-01    0.629154E-02    0.160000E-02
    0.550121E-01    0.629154E-02    0.160000E-02
    0.558155E-01    0.629154E-02    0.160000E-02
    0.566270E-01    0.629154E-02    0.160000E-02
    0.574466E-01    0.629154E-02    0.160000E-02
    0.582744E-01    0.629154E-02    0.160000E-02
    0.503557E-01    0.649103E-02    0.160000E-02
    0.511126E-01    0.649103E-02    0.160000E-02
    0.518770E-01    0.649103E-02    0.160000E-02
    0.526491E-01    0.649103E-02    0.160000E-02
    0.534289E-01    0.649103E-02    0.160000E-02
    0.542166E-01    0.649103E-02    0.160000E-02
    0.550121E-01    0.649103E-02    0.160000E-02
    0.558155E-01    0.649103E-02    0.160000E-02
    0.566270E-01    0.649103E-02    0.160000E-02
    0.574466E-01    0.649103E-02    0.160000E-02
    0.582744E-01    0.649103E-02    0.160000E-02
    0.503557E-01    0.669651E-02    0.160000E-02
    0.511126E-01    0.669651E-02    0.160000E-02
    0.518770E-01    0.669651E-02    0.160000E-02
    0.526491E-01    0.669651E-02    0.160000E-02
    0.534289E-01    0.669651E-02    0.160000E-02
    0.542166E-01    0.669651E-02    0.160000E-02
    0.550121E-01    0.669651E-02    0.160000E-02
    0.558155E-01    0.669651E-02    0.160000E-02
    0.566270E-01    0.669651E-02    0.160000E-02
    0.574466E-01    0.669651E-02    0.160000E-02
    0.582744E-01    0.669651E-02    0.160000E-02
</DataArray>
</Points>
<PointData>
<DataArray Name="Velocity" type="Float64" format="ascii" NumberOfComponents="3">
    0.885661E-01    0.647216E-04    0.000000E+00
    0.885485E-01    0.579540E-04    0.000000E+00
    0.885327E-01    0.510808E-04    0.000000E+00
    0.885186E-01    0.450318E-04    0.000000E+00
    0.885061E-01    0.397067E-04    0.000000E+00
    0.884948E-01    0.350160E-04    0.000000E+00
    0.884848E-01    0.308817E-04    0.000000E+00
    0.884759E-01    0.272359E-04    0.000000E+00
    0.884679E-01    0.240201E-04    0.000000E+00
    0.884607E-01    0.211846E-04    0.000000E+00
    0.884543E-01    0.186835E-04    0.000000E+00
    0.885647E-01    0.668107E-04    0.000000E+00
    0.885473E-01    0.598333E-04    0.000000E+00
    0.885317E-01    0.527429E-04    0.000000E+00
    0.885177E-01    0.465078E-04    0.000000E+00
    0.885053E-01    0.410258E-04    0.000000E+00
    0.884942E-01    0.361959E-04    0.000000E+00
    0.884843E-01    0.319291E-04    0.000000E+00
    0.884754E-01    0.281576E-04    0.000000E+00
    0.884674E-01    0.248312E-04    0.000000E+00
    0.884603E-01    0.219043E-04    0.000000E+00
    0.884540E-01    0.193282E-04    0.000000E+00
    0.885636E-01    0.688354E-04    0.000000E+00
    0.885463E-01    0.616626E-04    0.000000E+00
    0.885309E-01    0.543718E-04    0.000000E+00
    0.885171E-01    0.479562E-04    0.000000E+00
    0.885047E-01    0.423109E-04    0.000000E+00
    0.884937E-01    0.373354E-04    0.000000E+00
    0.884838E-01    0.329415E-04    0.000000E+00
    0.884750E-01    0.290591E-04    0.000000E+00
    0.884671E-01    0.256336E-04    0.000000E+00
    0.884601E-01    0.226167E-04    0.000000E+00
    0.884538E-01    0.199592E-04    0.000000E+00
    0.885622E-01    0.707908E-04    0.000000E+00
    0.885451E-01    0.634297E-04    0.000000E+00
    0.885298E-01    0.559459E-04    0.000000E+00
    0.885162E-01    0.493565E-04    0.000000E+00
    0.885039E-01    0.435543E-04    0.000000E+00
    0.884930E-01    0.384390E-04    0.000000E+00
    0.884833E-01    0.339223E-04    0.000000E+00
    0.884745E-01    0.299324E-04    0.000000E+00
    0.884667E-01    0.264110E-04    0.000000E+00
    0.884597E-01    0.233072E-04    0.000000E+00
    0.884535E-01    0.205714E-04    0.000000E+00
    0.885605E-01    0.726700E-04    0.000000E+00
    0.885437E-01    0.651289E-04    0.000000E+00
    0.885286E-01    0.574601E-04    0.000000E+00
    0.885151E-01    0.507043E-04    0.000000E+00
    0.885030E-01    0.447522E-04    0.000000E+00
    0.884922E-01    0.395032E-04    0.000000E+00
    0.884826E-01    0.348688E-04    0.000000E+00
    0.884740E-01    0.307752E-04    0.000000E+00
    0.884662E-01    0.271614E-04    0.000000E+00
    0.884593E-01    0.239741E-04    0.000000E+00
    0.884531E-01    0.211631E-04    0.000000E+00
    0.885587E-01    0.744623E-04    0.000000E+00
    0.885421E-01    0.667506E-04    0.000000E+00
    0.885272E-01    0.589061E-04    0.000000E+00
    0.885139E-01    0.519924E-04    0.000000E+00
    0.885020E-01    0.458981E-04    0.000000E+00
    0.884914E-01    0.405221E-04    0.000000E+00
    0.884818E-01    0.357755E-04    0.000000E+00
    0.884733E-01    0.315831E-04    0.000000E+00
    0.884657E-01    0.278809E-04    0.000000E+00
    0.884588E-01    0.246139E-04    0.000000E+00
    0.884527E-01    0.217313E-04    0.000000E+00
    0.885566E-01    0.762578E-04    0.000000E+00
    0.885403E-01    0.683764E-04    0.000000E+00
    0.885256E-01    0.603570E-04    0.000000E+00
    0.885126E-01    0.532861E-04    0.000000E+00
    0.885008E-01    0.470501E-04    0.000000E+00
    0.884903E-01    0.415473E-04    0.000000E+00
    0.884809E-01    0.366887E-04    0.000000E+00
    0.884725E-01    0.323971E-04    0.000000E+00
    0.884650E-01    0.286063E-04    0.000000E+00
    0.884582E-01    0.252594E-04    0.000000E+00
    0.884522E-01    0.223049E-04    0.000000E+00
    0.885542E-01    0.780467E-04    0.000000E+00
    0.885382E-01    0.699980E-04    0.000000E+00
    0.885238E-01    0.618057E-04    0.000000E+00
    0.885110E-01    0.545791E-04    0.000000E+00
    0.884995E-01    0.482027E-04    0.000000E+00
    0.884892E-01    0.425743E-04    0.000000E+00
    0.884799E-01    0.376043E-04    0.000000E+00
    0.884716E-01    0.332140E-04    0.000000E+00
    0.884642E-01    0.293347E-04    0.000000E+00
    0.884576E-01    0.259080E-04    0.000000E+00
    0.884516E-01    0.228818E-04    0.000000E+00
    0.885514E-01    0.798179E-04    0.000000E+00
    0.885358E-01    0.716056E-04    0.000000E+00
    0.885218E-01    0.632439E-04    0.000000E+00
    0.885092E-01    0.558643E-04    0.000000E+00
    0.884979E-01    0.493499E-04    0.000000E+00
    0.884878E-01    0.435975E-04    0.000000E+00
    0.884788E-01    0.385176E-04    0.000000E+00
    0.884706E-01    0.340297E-04    0.000000E+00
    0.884633E-01    0.300627E-04    0.000000E+00
    0.884568E-01    0.265568E-04    0.000000E+00
    0.884510E-01    0.234595E-04    0.000000E+00
    0.885483E-01    0.815583E-04    0.000000E+00
    0.885331E-01    0.731877E-04    0.000000E+00
    0.885194E-01    0.646614E-04    0.000000E+00
    0.885071E-01    0.571332E-04    0.000000E+00
    0.884961E-01    0.504840E-04    0.000000E+00
    0.884863E-01    0.446105E-04    0.000000E+00
    0.884774E-01    0.394229E-04    0.000000E+00
    0.884695E-01    0.348394E-04    0.000000E+00
    0.884623E-01    0.307863E-04    0.000000E+00
    0.884559E-01    0.272023E-04    0.000000E+00
    0.884502E-01    0.240349E-04    0.000000E+00
    0.885447E-01    0.832504E-04    0.000000E+00
    0.885299E-01    0.747276E-04    0.000000E+00
    0.885167E-01    0.660435E-04    0.000000E+00
    0.885047E-01    0.583731E-04    0.000000E+00
    0.884940E-01    0.515968E-04    0.000000E+00
    0.884844E-01    0.456084E-04    0.000000E+00
    0.884758E-01    0.403138E-04    0.000000E+00
    0.884681E-01    0.356318E-04    0.000000E+00
    0.884611E-01    0.314924E-04    0.000000E+00
    0.884549E-01    0.278339E-04    0.000000E+00
    0.884493E-01    0.246004E-04    0.000000E+00
    0.885664E-01    0.657652E-04   -0.161078E-19
    0.885488E-01    0.579540E-04   -0.141946E-19
    0.885330E-01    0.510808E-04   -0.125112E-19
    0.885189E-01    0.450318E-04   -0.110296E-19
    0.885062E-01    0.397067E-04   -0.972533E-20
    0.884950E-01    0.350160E-04   -0.857646E-20
    0.884850E-01    0.308817E-04   -0.756384E-20
    0.884760E-01    0.272359E-04   -0.667086E-20
    0.884679E-01    0.240201E-04   -0.588322E-20
    0.884608E-01    0.211846E-04   -0.518873E-20
    0.884544E-01    0.186835E-04   -0.457613E-20
    0.885647E-01    0.678859E-04   -0.166273E-19
    0.885473E-01    0.598333E-04   -0.146549E-19
    0.885317E-01    0.527429E-04   -0.129183E-19
    0.885177E-01    0.465078E-04   -0.113911E-19
    0.885053E-01    0.410258E-04   -0.100484E-19
    0.884942E-01    0.361959E-04   -0.886544E-20
    0.884843E-01    0.319291E-04   -0.782037E-20
    0.884754E-01    0.281576E-04   -0.689663E-20
    0.884674E-01    0.248312E-04   -0.608188E-20
    0.884603E-01    0.219043E-04   -0.536501E-20
    0.884540E-01    0.193282E-04   -0.473403E-20
    0.885636E-01    0.699408E-04   -0.171306E-19
    0.885463E-01    0.616626E-04   -0.151030E-19
    0.885309E-01    0.543718E-04   -0.133173E-19
    0.885171E-01    0.479562E-04   -0.117459E-19
    0.885047E-01    0.423109E-04   -0.103632E-19
    0.884937E-01    0.373354E-04   -0.914454E-20
    0.884838E-01    0.329415E-04   -0.806833E-20
    0.884750E-01    0.290591E-04   -0.711742E-20
    0.884671E-01    0.256336E-04   -0.627843E-20
    0.884601E-01    0.226167E-04   -0.553950E-20
    0.884538E-01    0.199592E-04   -0.488859E-20
    0.885622E-01    0.719251E-04   -0.176166E-19
    0.885451E-01    0.634297E-04   -0.155358E-19
    0.885298E-01    0.559459E-04   -0.137028E-19
    0.885162E-01    0.493565E-04   -0.120888E-19
    0.885039E-01    0.435543E-04   -0.106677E-19
    0.884930E-01    0.384390E-04   -0.941483E-20
    0.884833E-01    0.339223E-04   -0.830858E-20
    0.884745E-01    0.299324E-04   -0.733132E-20
    0.884667E-01    0.264110E-04   -0.646883E-20
    0.884597E-01    0.233072E-04   -0.570863E-20
    0.884535E-01    0.205714E-04   -0.503854E-20
    0.885605E-01    0.738319E-04   -0.180836E-19
    0.885437E-01    0.651289E-04   -0.159520E-19
    0.885286E-01    0.574601E-04   -0.140737E-19
    0.885151E-01    0.507043E-04   -0.124190E-19
    0.885030E-01    0.447522E-04   -0.109611E-19
    0.884922E-01    0.395032E-04   -0.967549E-20
    0.884826E-01    0.348688E-04   -0.854039E-20
    0.884740E-01    0.307752E-04   -0.753775E-20
    0.884662E-01    0.271614E-04   -0.665263E-20
    0.884593E-01    0.239741E-04   -0.587197E-20
    0.884531E-01    0.211631E-04   -0.518347E-20
    0.885587E-01    0.756504E-04   -0.185290E-19
    0.885421E-01    0.667506E-04   -0.163492E-19
    0.885272E-01    0.589061E-04   -0.144278E-19
    0.885139E-01    0.519924E-04   -0.127345E-19
    0.885020E-01    0.458981E-04   -0.112418E-19
    0.884914E-01    0.405221E-04   -0.992504E-20
    0.884818E-01    0.357755E-04   -0.876248E-20
    0.884733E-01    0.315831E-04   -0.773562E-20
    0.884657E-01    0.278809E-04   -0.682885E-20
    0.884588E-01    0.246139E-04   -0.602867E-20
    0.884527E-01    0.217313E-04   -0.532263E-20
    0.885566E-01    0.774718E-04   -0.189751E-19
    0.885403E-01    0.683764E-04   -0.167474E-19
    0.885256E-01    0.603570E-04   -0.147832E-19
    0.885126E-01    0.532861E-04   -0.130513E-19
    0.885008E-01    0.470501E-04   -0.115239E-19
    0.884903E-01    0.415473E-04   -0.101762E-19
    0.884809E-01    0.366887E-04   -0.898614E-20
    0.884725E-01    0.323971E-04   -0.793501E-20
    0.884650E-01    0.286063E-04   -0.700653E-20
    0.884582E-01    0.252594E-04   -0.618676E-20
    0.884522E-01    0.223049E-04   -0.546313E-20
    0.885542E-01    0.792863E-04   -0.194195E-19
    0.885382E-01    0.699980E-04   -0.171446E-19
    0.885238E-01    0.618057E-04   -0.151380E-19
    0.885110E-01    0.545791E-04   -0.133680E-19
    0.884995E-01    0.482027E-04   -0.118063E-19
    0.884892E-01    0.425743E-04   -0.104277E-19
    0.884799E-01    0.376043E-04   -0.921039E-20
    0.884716E-01    0.332140E-04   -0.813508E-20
    0.884642E-01    0.293347E-04   -0.718493E-20
    0.884576E-01    0.259080E-04   -0.634563E-20
    0.884516E-01    0.228818E-04   -0.560444E-20
    0.885514E-01    0.810825E-04   -0.198595E-19
    0.885358E-01    0.716056E-04   -0.175383E-19
    0.885218E-01    0.632439E-04   -0.154903E-19
    0.885092E-01    0.558643E-04   -0.136828E-19
    0.884979E-01    0.493499E-04   -0.120872E-19
    0.884878E-01    0.435975E-04   -0.106783E-19
    0.884788E-01    0.385176E-04   -0.943408E-20
    0.884706E-01    0.340297E-04   -0.833487E-20
    0.884633E-01    0.300627E-04   -0.736325E-20
    0.884568E-01    0.265568E-04   -0.650454E-20
    0.884510E-01    0.234595E-04   -0.574593E-20
    0.885483E-01    0.828470E-04   -0.202917E-19
    0.885331E-01    0.731877E-04   -0.179258E-19
    0.885194E-01    0.646614E-04   -0.158375E-19
    0.885071E-01    0.571332E-04   -0.139936E-19
    0.884961E-01    0.504840E-04   -0.123650E-19
    0.884863E-01    0.446105E-04   -0.109264E-19
    0.884774E-01    0.394229E-04   -0.965583E-20
    0.884695E-01    0.348394E-04   -0.853320E-20
    0.884623E-01    0.307863E-04   -0.754046E-20
    0.884559E-01    0.272023E-04   -0.666264E-20
    0.884502E-01    0.240349E-04   -0.588686E-20
    0.885447E-01    0.845623E-04   -0.207118E-19
    0.885299E-01    0.747276E-04   -0.183030E-19
    0.885167E-01    0.660435E-04   -0.161760E-19
    0.885047E-01    0.583731E-04   -0.142973E-19
    0.884940E-01    0.515968E-04   -0.126376E-19
    0.884844E-01    0.456084E-04   -0.111708E-19
    0.884758E-01    0.403138E-04   -0.987404E-20
    0.884681E-01    0.356318E-04   -0.872727E-20
    0.884611E-01    0.314924E-04   -0.771342E-20
    0.884549E-01    0.278339E-04   -0.681735E-20
    0.884493E-01    0.246004E-04   -0.602537E-20
</DataArray>
</PointData>
<CellData>
<DataArray Name="DP" type="Float64" format="ascii" NumberOfComponents="1">
      0.000000E+0000
      0.000000E+0000
      0.000000E+0000
      0.000000E+0000
      0.000000E+0000
      0.000000E+0000
      0.000000E+0000
      0.000000E+0000
      0.000000E+0000
      0.000000E+0000
      0.000000E+0000
      0.000000E+0000
      0.000000E+0000
      0.000000E+0000
      0.000000E+0000
      0.000000E+0000
      0.000000E+0000
      0.000000E+0000
      0.000000E+0000
      0.000000E+0000
      0.000000E+0000
      0.000000E+0000
      0.000000E+0000
      0.000000E+0000
      0.000000E+0000
      0.000000E+0000
      0.000000E+0000
      0.000000E+0000
      0.000000E+0000
      0.000000E+0000
      0.000000E+0000
      0.000000E+0000
      0.000000E+0000
      0.000000E+0000
      0.000000E+0000
      0.000000E+0000
      0.000000E+0000
      0.000000E+0000
      0.000000E+0000
      0.000000E+0000
      0.000000E+0000
      0.000000E+0000
      0.000000E+0000
      0.000000E+0000
      0.000000E+0000
      0.000000E+0000
      0.000000E+0000
      0.000000E+0000
      0.000000E+0000
      0.000000E+0000
      0.000000E+0000
      0.000000E+0000
      0.000000E+0000
      0.000000E+0000
      0.000000E+0000
      0.000000E+0000
      0.000000E+0000
      0.000000E+0000
      0.000000E+0000
      0.000000E+0000
      0.000000E+0000
      0.000000E+0000
      0.000000E+0000
      0.000000E+0000
      0.000000E+0000
      0.000000E+0000
      0.000000E+0000
      0.000000E+0000
      0.000000E+0000
      0.000000E+0000
      0.000000E+0000
      0.000000E+0000
      0.000000E+0000
      0.000000E+0000
      0.000000E+0000
      0.000000E+0000
      0.000000E+0000
      0.000000E+0000
      0.000000E+0000
      0.000000E+0000
      0.000000E+0000
      0.000000E+0000
      0.000000E+0000
      0.000000E+0000
      0.000000E+0000
      0.000000E+0000
      0.000000E+0000
      0.000000E+0000
      0.000000E+0000
      0.000000E+0000
      0.000000E+0000
      0.000000E+0000
      0.000000E+0000
      0.000000E+0000
      0.000000E+0000
      0.000000E+0000
      0.000000E+0000
      0.000000E+0000
      0.000000E+0000
      0.000000E+0000
</DataArray>
<DataArray Name="P" type="Float64" format="ascii" NumberOfComponents="1">
      0.501020E-0001
      0.413496E-0001
      0.325112E-0001
      0.235877E-0001
      0.145767E-0001
      0.547466E-0002
     -0.372051E-0002
     -0.130077E-0001
     -0.223853E-0001
     -0.318537E-0001
      0.501007E-0001
      0.413489E-0001
      0.325109E-0001
      0.235872E-0001
      0.145758E-0001
      0.547345E-0002
     -0.372142E-0002
     -0.130082E-0001
     -0.223856E-0001
     -0.318543E-0001
      0.500994E-0001
      0.413481E-0001
      0.325105E-0001
      0.235866E-0001
      0.145748E-0001
      0.547237E-0002
     -0.372228E-0002
     -0.130087E-0001
     -0.223861E-0001
     -0.318550E-0001
      0.500983E-0001
      0.413473E-0001
      0.325099E-0001
      0.235860E-0001
      0.145740E-0001
      0.547139E-0002
     -0.372312E-0002
     -0.130093E-0001
     -0.223866E-0001
     -0.318557E-0001
      0.500972E-0001
      0.413465E-0001
      0.325093E-0001
      0.235854E-0001
      0.145732E-0001
      0.547049E-0002
     -0.372393E-0002
     -0.130099E-0001
     -0.223872E-0001
     -0.318564E-0001
      0.500961E-0001
      0.413456E-0001
      0.325087E-0001
      0.235847E-0001
      0.145724E-0001
      0.546963E-0002
     -0.372475E-0002
     -0.130106E-0001
     -0.223878E-0001
     -0.318571E-0001
      0.500950E-0001
      0.413447E-0001
      0.325079E-0001
      0.235840E-0001
      0.145716E-0001
      0.546879E-0002
     -0.372560E-0002
     -0.130114E-0001
     -0.223885E-0001
     -0.318579E-0001
      0.500939E-0001
      0.413438E-0001
      0.325071E-0001
      0.235833E-0001
      0.145708E-0001
      0.546795E-0002
     -0.372648E-0002
     -0.130122E-0001
     -0.223893E-0001
     -0.318587E-0001
      0.500927E-0001
      0.413428E-0001
      0.325062E-0001
      0.235825E-0001
      0.145701E-0001
      0.546712E-0002
     -0.372740E-0002
     -0.130132E-0001
     -0.223901E-0001
     -0.318596E-0001
      0.500916E-0001
      0.413417E-0001
      0.325053E-0001
      0.235816E-0001
      0.145693E-0001
      0.546632E-0002
     -0.372836E-0002
     -0.130142E-0001
     -0.223911E-0001
     -0.318604E-0001
</DataArray>
<DataArray Name="RHO" type="Float64" format="ascii" NumberOfComponents="1">
      0.117197E+0001
      0.117197E+0001
      0.117197E+0001
      0.117197E+0001
      0.117197E+0001
      0.117197E+0001
      0.117197E+0001
      0.117197E+0001
      0.117197E+0001
      0.117197E+0001
      0.117197E+0001
      0.117197E+0001
      0.117197E+0001
      0.117197E+0001
      0.117197E+0001
      0.117197E+0001
      0.117197E+0001
      0.117197E+0001
      0.117197E+0001
      0.117197E+0001
      0.117197E+0001
      0.117197E+0001
      0.117197E+0001
      0.117197E+0001
      0.117197E+0001
      0.117197E+0001
      0.117197E+0001
      0.117197E+0001
      0.117197E+0001
      0.117197E+0001
      0.117197E+0001
      0.117197E+0001
      0.117197E+0001
      0.117197E+0001
      0.117197E+0001
      0.117197E+0001
      0.117197E+0001
      0.117197E+0001
      0.117197E+0001
      0.117197E+0001
      0.117197E+0001
      0.117197E+0001
      0.117197E+0001
      0.117197E+0001
      0.117197E+0001
      0.117197E+0001
      0.117197E+0001
      0.117197E+0001
      0.117197E+0001
      0.117197E+0001
      0.117197E+0001
      0.117197E+0001
      0.117197E+0001
      0.117197E+0001
      0.117197E+0001
      0.117197E+0001
      0.117197E+0001
      0.117197E+0001
      0.117197E+0001
      0.117197E+0001
      0.117197E+0001
      0.117197E+0001