<?xml version="1.0"?>
<VTKFile type="StructuredGrid" version="0.1" byte_order="LittleEndian">
<StructuredGrid WholeExtent="          60          70          70          80           0           1">
<Piece Extent="          60          70          70          80           0           1">
<Points>
<DataArray NumberOfComponents="3" type="Float64" format="ascii">
    0.206889E-01    0.226546E-01    0.000000E+00
    0.211491E-01    0.226546E-01    0.000000E+00
    0.216139E-01    0.226546E-01    0.000000E+00
    0.220834E-01    0.226546E-01    0.000000E+00
    0.225576E-01    0.226546E-01    0.000000E+00
    0.230365E-01    0.226546E-01    0.000000E+00
    0.235201E-01    0.226546E-01    0.000000E+00
    0.240087E-01    0.226546E-01    0.000000E+00
    0.245021E-01    0.226546E-01    0.000000E+00
    0.250004E-01    0.226546E-01    0.000000E+00
    0.255037E-01    0.226546E-01    0.000000E+00
    0.206889E-01    0.233450E-01    0.000000E+00
    0.211491E-01    0.233450E-01    0.000000E+00
    0.216139E-01    0.233450E-01    0.000000E+00
    0.220834E-01    0.233450E-01    0.000000E+00
    0.225576E-01    0.233450E-01    0.000000E+00
    0.230365E-01    0.233450E-01    0.000000E+00
    0.235201E-01    0.233450E-01    0.000000E+00
    0.240087E-01    0.233450E-01    0.000000E+00
    0.245021E-01    0.233450E-01    0.000000E+00
    0.250004E-01    0.233450E-01    0.000000E+00
    0.255037E-01    0.233450E-01    0.000000E+00
    0.206889E-01    0.240561E-01    0.000000E+00
    0.211491E-01    0.240561E-01    0.000000E+00
    0.216139E-01    0.240561E-01    0.000000E+00
    0.220834E-01    0.240561E-01    0.000000E+00
    0.225576E-01    0.240561E-01    0.000000E+00
    0.230365E-01    0.240561E-01    0.000000E+00
    0.235201E-01    0.240561E-01    0.000000E+00
    0.240087E-01    0.240561E-01    0.000000E+00
    0.245021E-01    0.240561E-01    0.000000E+00
    0.250004E-01    0.240561E-01    0.000000E+00
    0.255037E-01    0.240561E-01    0.000000E+00
    0.206889E-01    0.247885E-01    0.000000E+00
    0.211491E-01    0.247885E-01    0.000000E+00
    0.216139E-01    0.247885E-01    0.000000E+00
    0.220834E-01    0.247885E-01    0.000000E+00
    0.225576E-01    0.247885E-01    0.000000E+00
    0.230365E-01    0.247885E-01    0.000000E+00
    0.235201E-01    0.247885E-01    0.000000E+00
    0.240087E-01    0.247885E-01    0.000000E+00
    0.245021E-01    0.247885E-01    0.000000E+00
    0.250004E-01    0.247885E-01    0.000000E+00
    0.255037E-01    0.247885E-01    0.000000E+00
    0.206889E-01    0.255429E-01    0.000000E+00
    0.211491E-01    0.255429E-01    0.000000E+00
    0.216139E-01    0.255429E-01    0.000000E+00
    0.220834E-01    0.255429E-01    0.000000E+00
    0.225576E-01    0.255429E-01    0.000000E+00
    0.230365E-01    0.255429E-01    0.000000E+00
    0.235201E-01    0.255429E-01    0.000000E+00
    0.240087E-01    0.255429E-01    0.000000E+00
    0.245021E-01    0.255429E-01    0.000000E+00
    0.250004E-01    0.255429E-01    0.000000E+00
    0.255037E-01    0.255429E-01    0.000000E+00
    0.206889E-01    0.263200E-01    0.000000E+00
    0.211491E-01    0.263200E-01    0.000000E+00
    0.216139E-01    0.263200E-01    0.000000E+00
    0.220834E-01    0.263200E-01    0.000000E+00
    0.225576E-01    0.263200E-01    0.000000E+00
    0.230365E-01    0.263200E-01    0.000000E+00
    0.235201E-01    0.263200E-01    0.000000E+00
    0.240087E-01    0.263200E-01    0.000000E+00
    0.245021E-01    0.263200E-01    0.000000E+00
    0.250004E-01    0.263200E-01    0.000000E+00
    0.255037E-01    0.263200E-01    0.000000E+00
    0.206889E-01    0.271203E-01    0.000000E+00
    0.211491E-01    0.271203E-01    0.000000E+00
    0.216139E-01    0.271203E-01    0.000000E+00
    0.220834E-01    0.271203E-01    0.000000E+00
    0.225576E-01    0.271203E-01    0.000000E+00
    0.230365E-01    0.271203E-01    0.000000E+00
    0.235201E-01    0.271203E-01    0.000000E+00
    0.240087E-01    0.271203E-01    0.000000E+00
    0.245021E-01    0.271203E-01    0.000000E+00
    0.250004E-01    0.271203E-01    0.000000E+00
    0.255037E-01    0.271203E-01    0.000000E+00
    0.206889E-01    0.279447E-01    0.000000E+00
    0.211491E-01    0.279447E-01    0.000000E+00
    0.216139E-01    0.279447E-01    0.000000E+00
    0.220834E-01    0.279447E-01    0.000000E+00
    0.225576E-01    0.279447E-01    0.000000E+00
    0.230365E-01    0.279447E-01    0.000000E+00
    0.235201E-01    0.279447E-01    0.000000E+00
    0.240087E-01    0.279447E-01    0.000000E+00
    0.245021E-01    0.279447E-01    0.000000E+00
    0.250004E-01    0.279447E-01    0.000000E+00
    0.255037E-01    0.279447E-01    0.000000E+00
    0.206889E-01    0.287938E-01    0.000000E+00
    0.211491E-01    0.287938E-01    0.000000E+00
    0.216139E-01    0.287938E-01    0.000000E+00
    0.220834E-01    0.287938E-01    0.000000E+00
    0.225576E-01    0.287938E-01    0.000000E+00
    0.230365E-01    0.287938E-01    0.000000E+00
    0.235201E-01    0.287938E-01    0.000000E+00
    0.240087E-01    0.287938E-01    0.000000E+00
    0.245021E-01    0.287938E-01    0.000000E+00
    0.250004E-01    0.287938E-01    0.000000E+00
    0.255037E-01    0.287938E-01    0.000000E+00
    0.206889E-01    0.296683E-01    0.000000E+00
    0.211491E-01    0.296683E-01    0.000000E+00
    0.216139E-01    0.296683E-01    0.000000E+00
    0.220834E-01    0.296683E-01    0.000000E+00
    0.225576E-01    0.296683E-01    0.000000E+00
    0.230365E-01    0.296683E-01    0.000000E+00
    0.235201E-01    0.296683E-01    0.000000E+00
    0.240087E-01    0.296683E-01    0.000000E+00
    0.245021E-01    0.296683E-01    0.000000E+00
    0.250004E-01    0.296683E-01    0.000000E+00
    0.255037E-01    0.296683E-01    0.000000E+00
    0.206889E-01    0.305691E-01    0.000000E+00
    0.211491E-01    0.305691E-01    0.000000E+00
    0.216139E-01    0.305691E-01    0.000000E+00
    0.220834E-01    0.305691E-01    0.000000E+00
    0.225576E-01    0.305691E-01    0.000000E+00
    0.230365E-01    0.305691E-01    0.000000E+00
    0.235201E-01    0.305691E-01    0.000000E+00
    0.240087E-01    0.305691E-01    0.000000E+00
    0.245021E-01    0.305691E-01    0.000000E+00
    0.250004E-01    0.305691E-01    0.000000E+00
    0.255037E-01    0.305691E-01    0.000000E+00
    0.206889E-01    0.226546E-01    0.160000E-02
    0.211491E-01    0.226546E-01    0.160000E-02
    0.216139E-01    0.226546E-01    0.160000E-02
    0.220834E-01    0.226546E-01    0.160000E-02
    0.225576E-01    0.226546E-01    0.160000E-02
    0.230365E-01    0.226546E-01    0.160000E-02
    0.235201E-01    0.226546E-01    0.160000E-02
    0.240087E-01    0.226546E-01    0.160000E-02
    0.245021E-01    0.226546E-01    0.160000E-02
    0.250004E-01    0.226546E-01    0.160000E-02
    0.255037E-01    0.226546E-01    0.160000E-02
    0.206889E-01    0.233450E-01    0.160000E-02
    0.211491E-01    0.233450E-01    0.160000E-02
    0.216139E-01    0.233450E-01    0.160000E-02
    0.220834E-01    0.233450E-01    0.160000E-02
    0.225576E-01    0.233450E-01    0.160000E-02
    0.230365E-01    0.233450E-01    0.160000E-02
    0.235201E-01    0.233450E-01    0.160000E-02
    0.240087E-01    0.233450E-01    0.160000E-02
    0.245021E-01    0.233450E-01    0.160000E-02
    0.250004E-01    0.233450E-01    0.160000E-02
    0.255037E-01    0.233450E-01    0.160000E-02
    0.206889E-01    0.240561E-01    0.160000E-02
    0.211491E-01    0.240561E-01    0.160000E-02
    0.216139E-01    0.240561E-01    0.160000E-02
    0.220834E-01    0.240561E-01    0.160000E-02
    0.225576E-01    0.240561E-01    0.160000E-02
    0.230365E-01    0.240561E-01    0.160000E-02
    0.235201E-01    0.240561E-01    0.160000E-02
    0.240087E-01    0.240561E-01    0.160000E-02
    0.245021E-01    0.240561E-01    0.160000E-02
    0.250004E-01    0.240561E-01    0.160000E-02
    0.255037E-01    0.240561E-01    0.160000E-02
    0.206889E-01    0.247885E-01    0.160000E-02
    0.211491E-01    0.247885E-01    0.160000E-02
    0.216139E-01    0.247885E-01    0.160000E-02
    0.220834E-01    0.247885E-01    0.160000E-02
    0.225576E-01    0.247885E-01    0.160000E-02
    0.230365E-01    0.247885E-01    0.160000E-02
    0.235201E-01    0.247885E-01    0.160000E-02
    0.240087E-01    0.247885E-01    0.160000E-02
    0.245021E-01    0.247885E-01    0.160000E-02
    0.250004E-01    0.247885E-01    0.160000E-02
    0.255037E-01    0.247885E-01    0.160000E-02
    0.206889E-01    0.255429E-01    0.160000E-02
    0.211491E-01    0.255429E-01    0.160000E-02
    0.216139E-01    0.255429E-01    0.160000E-02
    0.220834E-01    0.255429E-01    0.160000E-02
    0.225576E-01    0.255429E-01    0.160000E-02
    0.230365E-01    0.255429E-01    0.160000E-02
    0.235201E-01    0.255429E-01    0.160000E-02
    0.240087E-01    0.255429E-01    0.160000E-02
    0.245021E-01    0.255429E-01    0.160000E-02
    0.250004E-01    0.255429E-01    0.160000E-02
    0.255037E-01    0.255429E-01    0.160000E-02
    0.206889E-01    0.263200E-01    0.160000E-02
    0.211491E-01    0.263200E-01    0.160000E-02
    0.216139E-01    0.263200E-01    0.160000E-02
    0.220834E-01    0.263200E-01    0.160000E-02
    0.225576E-01    0.263200E-01    0.160000E-02
    0.230365E-01    0.263200E-01    0.160000E-02
    0.235201E-01    0.263200E-01    0.160000E-02
    0.240087E-01    0.263200E-01    0.160000E-02
    0.245021E-01    0.263200E-01    0.160000E-02
    0.250004E-01    0.263200E-01    0.160000E-02
    0.255037E-01    0.263200E-01    0.160000E-02
    0.206889E-01    0.271203E-01    0.160000E-02
    0.211491E-01    0.271203E-01    0.160000E-02
    0.216139E-01    0.271203E-01    0.160000E-02
    0.220834E-01    0.271203E-01    0.160000E-02
    0.225576E-01    0.271203E-01    0.160000E-02
    0.230365E-01    0.271203E-01    0.160000E-02
    0.235201E-01    0.271203E-01    0.160000E-02
    0.240087E-01    0.271203E-01    0.160000E-02
    0.245021E-01    0.271203E-01    0.160000E-02
    0.250004E-01    0.271203E-01    0.160000E-02
    0.255037E-01    0.271203E-01    0.160000E-02
    0.206889E-01    0.279447E-01    0.160000E-02
    0.211491E-01    0.279447E-01    0.160000E-02
    0.216139E-01    0.279447E-01    0.160000E-02
    0.220834E-01    0.279447E-01    0.160000E-02
    0.225576E-01    0.279447E-01    0.160000E-02
    0.230365E-01    0.279447E-01    0.160000E-02
    0.235201E-01    0.279447E-01    0.160000E-02
    0.240087E-01    0.279447E-01    0.160000E-02
    0.245021E-01    0.279447E-01    0.160000E-02
    0.250004E-01    0.279447E-01    0.160000E-02
    0.255037E-01    0.279447E-01    0.160000E-02
    0.206889E-01    0.287938E-01    0.160000E-02
    0.211491E-01    0.287938E-01    0.160000E-02
    0.216139E-01    0.287938E-01    0.160000E-02
    0.220834E-01    0.287938E-01    0.160000E-02
    0.225576E-01    0.287938E-01    0.160000E-02
    0.230365E-01    0.287938E-01    0.160000E-02
    0.235201E-01    0.287938E-01    0.160000E-02
    0.240087E-01    0.287938E-01    0.160000E-02
    0.245021E-01    0.287938E-01    0.160000E-02
    0.250004E-01    0.287938E-01    0.160000E-02
    0.255037E-01    0.287938E-01    0.160000E-02
    0.206889E-01    0.296683E-01    0.160000E-02
    0.211491E-01    0.296683E-01    0.160000E-02
    0.216139E-01    0.296683E-01    0.160000E-02
    0.220834E-01    0.296683E-01    0.160000E-02
    0.225576E-01    0.296683E-01    0.160000E-02
    0.230365E-01    0.296683E-01    0.160000E-02
    0.235201E-01    0.296683E-01    0.160000E-02
    0.240087E-01    0.296683E-01    0.160000E-02
    0.245021E-01    0.296683E-01    0.160000E-02
    0.250004E-01    0.296683E-01    0.160000E-02
    0.255037E-01    0.296683E-01    0.160000E-02
    0.206889E-01    0.305691E-01    0.160000E-02
    0.211491E-01    0.305691E-01    0.160000E-02
    0.216139E-01    0.305691E-01    0.160000E-02
    0.220834E-01    0.305691E-01    0.160000E-02
    0.225576E-01    0.305691E-01    0.160000E-02
    0.230365E-01    0.305691E-01    0.160000E-02
    0.235201E-01    0.305691E-01    0.160000E-02
    0.240087E-01    0.305691E-01    0.160000E-02
    0.245021E-01    0.305691E-01    0.160000E-02
    0.250004E-01    0.305691E-01    0.160000E-02
    0.255037E-01    0.305691E-01    0.160000E-02
</DataArray>
</Points>
<PointData>
<DataArray Name="Velocity" type="Float64" format="ascii" NumberOfComponents="3">
    0.870459E-01   -0.706887E-03    0.000000E+00
    0.870513E-01   -0.701525E-03    0.000000E+00
    0.870614E-01   -0.701829E-03    0.000000E+00
    0.870763E-01   -0.706873E-03    0.000000E+00
    0.870957E-01   -0.714050E-03    0.000000E+00
    0.871196E-01   -0.720665E-03    0.000000E+00
    0.871476E-01   -0.724187E-03    0.000000E+00
    0.871793E-01   -0.722489E-03    0.000000E+00
    0.872142E-01   -0.714018E-03    0.000000E+00
    0.872518E-01   -0.697903E-03    0.000000E+00
    0.872916E-01   -0.673965E-03    0.000000E+00
    0.871923E-01   -0.686528E-03    0.000000E+00
    0.871951E-01   -0.687590E-03    0.000000E+00
    0.872019E-01   -0.695160E-03    0.000000E+00
    0.872129E-01   -0.707245E-03    0.000000E+00
    0.872280E-01   -0.721088E-03    0.000000E+00
    0.872470E-01   -0.733840E-03    0.000000E+00
    0.872697E-01   -0.742851E-03    0.000000E+00
    0.872957E-01   -0.745906E-03    0.000000E+00
    0.873246E-01   -0.741424E-03    0.000000E+00
    0.873560E-01   -0.728553E-03    0.000000E+00
    0.873894E-01   -0.707178E-03    0.000000E+00
    0.873548E-01   -0.669351E-03    0.000000E+00
    0.873578E-01   -0.674669E-03    0.000000E+00
    0.873635E-01   -0.686757E-03    0.000000E+00
    0.873718E-01   -0.703020E-03    0.000000E+00
    0.873825E-01   -0.720744E-03    0.000000E+00
    0.873955E-01   -0.737125E-03    0.000000E+00
    0.874108E-01   -0.749553E-03    0.000000E+00
    0.874283E-01   -0.755848E-03    0.000000E+00
    0.874478E-01   -0.754451E-03    0.000000E+00
    0.874693E-01   -0.744523E-03    0.000000E+00
    0.874927E-01   -0.725949E-03    0.000000E+00
    0.875094E-01   -0.652679E-03    0.000000E+00
    0.875116E-01   -0.660724E-03    0.000000E+00
    0.875154E-01   -0.675444E-03    0.000000E+00
    0.875208E-01   -0.693947E-03    0.000000E+00
    0.875275E-01   -0.713667E-03    0.000000E+00
    0.875355E-01   -0.731956E-03    0.000000E+00
    0.875448E-01   -0.746337E-03    0.000000E+00
    0.875555E-01   -0.754735E-03    0.000000E+00
    0.875676E-01   -0.755655E-03    0.000000E+00
    0.875812E-01   -0.748277E-03    0.000000E+00
    0.875964E-01   -0.732463E-03    0.000000E+00
    0.876508E-01   -0.634989E-03    0.000000E+00
    0.876516E-01   -0.644709E-03    0.000000E+00
    0.876534E-01   -0.660810E-03    0.000000E+00
    0.876560E-01   -0.680289E-03    0.000000E+00
    0.876593E-01   -0.700784E-03    0.000000E+00
    0.876632E-01   -0.719853E-03    0.000000E+00
    0.876679E-01   -0.735201E-03    0.000000E+00
    0.876733E-01   -0.744897E-03    0.000000E+00
    0.876797E-01   -0.747534E-03    0.000000E+00
    0.876873E-01   -0.742321E-03    0.000000E+00
    0.876963E-01   -0.729094E-03    0.000000E+00
    0.877771E-01   -0.615588E-03    0.000000E+00
    0.877763E-01   -0.626284E-03    0.000000E+00
    0.877762E-01   -0.642966E-03    0.000000E+00
    0.877764E-01   -0.662639E-03    0.000000E+00
    0.877769E-01   -0.683162E-03    0.000000E+00
    0.877776E-01   -0.702313E-03    0.000000E+00
    0.877787E-01   -0.718000E-03    0.000000E+00
    0.877803E-01   -0.728452E-03    0.000000E+00
    0.877825E-01   -0.732362E-03    0.000000E+00
    0.877856E-01   -0.728978E-03    0.000000E+00
    0.877900E-01   -0.718113E-03    0.000000E+00
    0.878881E-01   -0.594272E-03    0.000000E+00
    0.878858E-01   -0.605502E-03    0.000000E+00
    0.878839E-01   -0.622292E-03    0.000000E+00
    0.878822E-01   -0.641715E-03    0.000000E+00
    0.878805E-01   -0.661848E-03    0.000000E+00
    0.878788E-01   -0.680691E-03    0.000000E+00
    0.878773E-01   -0.696354E-03    0.000000E+00
    0.878761E-01   -0.707225E-03    0.000000E+00
    0.878754E-01   -0.712103E-03    0.000000E+00
    0.878754E-01   -0.710278E-03    0.000000E+00
    0.878764E-01   -0.701546E-03    0.000000E+00
    0.879845E-01   -0.571044E-03    0.000000E+00
    0.879808E-01   -0.582566E-03    0.000000E+00
    0.879773E-01   -0.599235E-03    0.000000E+00
    0.879740E-01   -0.618220E-03    0.000000E+00
    0.879707E-01   -0.637800E-03    0.000000E+00
    0.879673E-01   -0.656183E-03    0.000000E+00
    0.879641E-01   -0.671666E-03    0.000000E+00
    0.879610E-01   -0.682791E-03    0.000000E+00
    0.879584E-01   -0.688458E-03    0.000000E+00
    0.879564E-01   -0.687999E-03    0.000000E+00
    0.879553E-01   -0.681195E-03    0.000000E+00
    0.880670E-01   -0.545878E-03    0.000000E+00
    0.880619E-01   -0.557638E-03    0.000000E+00
    0.880571E-01   -0.574191E-03    0.000000E+00
    0.880524E-01   -0.592792E-03    0.000000E+00
    0.880479E-01   -0.611897E-03    0.000000E+00
    0.880435E-01   -0.629895E-03    0.000000E+00
    0.880393E-01   -0.645250E-03    0.000000E+00
    0.880353E-01   -0.656636E-03    0.000000E+00
    0.880318E-01   -0.663041E-03    0.000000E+00
    0.880289E-01   -0.663836E-03    0.000000E+00
    0.880268E-01   -0.658792E-03    0.000000E+00
    0.881366E-01   -0.518478E-03    0.000000E+00
    0.881299E-01   -0.530657E-03    0.000000E+00
    0.881237E-01   -0.547396E-03    0.000000E+00
    0.881180E-01   -0.565982E-03    0.000000E+00
    0.881128E-01   -0.585006E-03    0.000000E+00
    0.881079E-01   -0.602994E-03    0.000000E+00
    0.881036E-01   -0.618533E-03    0.000000E+00
    0.880997E-01   -0.630397E-03    0.000000E+00
    0.880965E-01   -0.637642E-03    0.000000E+00
    0.880939E-01   -0.639666E-03    0.000000E+00
    0.880921E-01   -0.636234E-03    0.000000E+00
    0.881962E-01   -0.487948E-03    0.000000E+00
    0.881873E-01   -0.501077E-03    0.000000E+00
    0.881794E-01   -0.518768E-03    0.000000E+00
    0.881727E-01   -0.538207E-03    0.000000E+00
    0.881670E-01   -0.558042E-03    0.000000E+00
    0.881624E-01   -0.576853E-03    0.000000E+00
    0.881589E-01   -0.593278E-03    0.000000E+00
    0.881564E-01   -0.606132E-03    0.000000E+00
    0.881548E-01   -0.614502E-03    0.000000E+00
    0.881540E-01   -0.617802E-03    0.000000E+00
    0.881540E-01   -0.615801E-03    0.000000E+00
    0.870241E-01   -0.708232E-03    0.173467E-18
    0.870306E-01   -0.701525E-03    0.171824E-18
    0.870417E-01   -0.701829E-03    0.171899E-18
    0.870574E-01   -0.706873E-03    0.173134E-18
    0.870775E-01   -0.714050E-03    0.174892E-18
    0.871020E-01   -0.720665E-03    0.176512E-18
    0.871304E-01   -0.724187E-03    0.177375E-18
    0.871625E-01   -0.722489E-03    0.176959E-18
    0.871977E-01   -0.714018E-03    0.174884E-18
    0.872356E-01   -0.697903E-03    0.170937E-18
    0.872757E-01   -0.673965E-03    0.165074E-18
    0.871923E-01   -0.686948E-03    0.168254E-18
    0.871951E-01   -0.687590E-03    0.168411E-18
    0.872019E-01   -0.695160E-03    0.170265E-18
    0.872129E-01   -0.707245E-03    0.173225E-18
    0.872280E-01   -0.721088E-03    0.176616E-18
    0.872470E-01   -0.733840E-03    0.179739E-18
    0.872697E-01   -0.742851E-03    0.181946E-18
    0.872957E-01   -0.745906E-03    0.182694E-18
    0.873246E-01   -0.741424E-03    0.181597E-18
    0.873560E-01   -0.728553E-03    0.178444E-18
    0.873894E-01   -0.707178E-03    0.173209E-18
    0.873548E-01   -0.669131E-03    0.163890E-18
    0.873578E-01   -0.674669E-03    0.165246E-18
    0.873635E-01   -0.686757E-03    0.168207E-18
    0.873718E-01   -0.703020E-03    0.172190E-18
    0.873825E-01   -0.720744E-03    0.176531E-18
    0.873955E-01   -0.737125E-03    0.180544E-18
    0.874108E-01   -0.749553E-03    0.183588E-18
    0.874283E-01   -0.755848E-03    0.185129E-18
    0.874478E-01   -0.754451E-03    0.184787E-18
    0.874693E-01   -0.744523E-03    0.182355E-18
    0.874927E-01   -0.725949E-03    0.177806E-18
    0.875094E-01   -0.652025E-03    0.159700E-18
    0.875116E-01   -0.660724E-03    0.161831E-18
    0.875154E-01   -0.675444E-03    0.165436E-18
    0.875208E-01   -0.693947E-03    0.169968E-18
    0.875275E-01   -0.713667E-03    0.174798E-18
    0.875355E-01   -0.731956E-03    0.179277E-18
    0.875448E-01   -0.746337E-03    0.182800E-18
    0.875555E-01   -0.754735E-03    0.184857E-18
    0.875676E-01   -0.755655E-03    0.185082E-18
    0.875812E-01   -0.748277E-03    0.183275E-18
    0.875964E-01   -0.732463E-03    0.179402E-18
    0.876508E-01   -0.634047E-03    0.155297E-18
    0.876516E-01   -0.644709E-03    0.157908E-18
    0.876534E-01   -0.660810E-03    0.161852E-18
    0.876560E-01   -0.680289E-03    0.166623E-18
    0.876593E-01   -0.700784E-03    0.171643E-18
    0.876632E-01   -0.719853E-03    0.176313E-18
    0.876679E-01   -0.735201E-03    0.180072E-18
    0.876733E-01   -0.744897E-03    0.182447E-18
    0.876797E-01   -0.747534E-03    0.183093E-18
    0.876873E-01   -0.742321E-03    0.181816E-18
    0.876963E-01   -0.729094E-03    0.178577E-18
    0.877771E-01   -0.614458E-03    0.150499E-18
    0.877763E-01   -0.626284E-03    0.153395E-18
    0.877762E-01   -0.642966E-03    0.157481E-18
    0.877764E-01   -0.662639E-03    0.162300E-18
    0.877769E-01   -0.683162E-03    0.167326E-18
    0.877776E-01   -0.702313E-03    0.172017E-18
    0.877787E-01   -0.718000E-03    0.175859E-18
    0.877803E-01   -0.728452E-03    0.178419E-18
    0.877825E-01   -0.732362E-03    0.179377E-18
    0.877856E-01   -0.728978E-03    0.178548E-18
    0.877900E-01   -0.718113E-03    0.175887E-18
    0.878881E-01   -0.593020E-03    0.145248E-18
    0.878858E-01   -0.605502E-03    0.148305E-18
    0.878839E-01   -0.622292E-03    0.152418E-18
    0.878822E-01   -0.641715E-03    0.157175E-18
    0.878805E-01   -0.661848E-03    0.162106E-18
    0.878788E-01   -0.680691E-03    0.166721E-18
    0.878773E-01   -0.696354E-03    0.170558E-18
    0.878761E-01   -0.707225E-03    0.173220E-18
    0.878754E-01   -0.712103E-03    0.174415E-18
    0.878754E-01   -0.710278E-03    0.173968E-18
    0.878764E-01   -0.701546E-03    0.171829E-18
    0.879845E-01   -0.569709E-03    0.139538E-18
    0.879808E-01   -0.582566E-03    0.142687E-18
    0.879773E-01   -0.599235E-03    0.146770E-18
    0.879740E-01   -0.618220E-03    0.151420E-18
    0.879707E-01   -0.637800E-03    0.156216E-18
    0.879673E-01   -0.656183E-03    0.160718E-18
    0.879641E-01   -0.671666E-03    0.164511E-18
    0.879610E-01   -0.682791E-03    0.167236E-18
    0.879584E-01   -0.688458E-03    0.168624E-18
    0.879564E-01   -0.687999E-03    0.168511E-18
    0.879553E-01   -0.681195E-03    0.166845E-18
    0.880670E-01   -0.544474E-03    0.133358E-18
    0.880619E-01   -0.557638E-03    0.136582E-18
    0.880571E-01   -0.574191E-03    0.140636E-18
    0.880524E-01   -0.592792E-03    0.145192E-18
    0.880479E-01   -0.611897E-03    0.149871E-18
    0.880435E-01   -0.629895E-03    0.154280E-18
    0.880393E-01   -0.645250E-03    0.158041E-18
    0.880353E-01   -0.656636E-03    0.160829E-18
    0.880318E-01   -0.663041E-03    0.162398E-18
    0.880289E-01   -0.663836E-03    0.162593E-18
    0.880268E-01   -0.658792E-03    0.161357E-18
    0.881366E-01   -0.516987E-03    0.126625E-18
    0.881299E-01   -0.530657E-03    0.129973E-18
    0.881237E-01   -0.547396E-03    0.134073E-18
    0.881180E-01   -0.565982E-03    0.138626E-18
    0.881128E-01   -0.585006E-03    0.143285E-18
    0.881079E-01   -0.602994E-03    0.147691E-18
    0.881036E-01   -0.618533E-03    0.151497E-18
    0.880997E-01   -0.630397E-03    0.154403E-18
    0.880965E-01   -0.637642E-03    0.156177E-18
    0.880939E-01   -0.639666E-03    0.156673E-18
    0.880921E-01   -0.636234E-03    0.155832E-18
    0.881962E-01   -0.486308E-03    0.119111E-18
    0.881873E-01   -0.501077E-03    0.122729E-18
    0.881794E-01   -0.518768E-03    0.127062E-18
    0.881727E-01   -0.538207E-03    0.131823E-18
    0.881670E-01   -0.558042E-03    0.136681E-18
    0.881624E-01   -0.576853E-03    0.141288E-18
    0.881589E-01   -0.593278E-03    0.145311E-18
    0.881564E-01   -0.606132E-03    0.148460E-18
    0.881548E-01   -0.614502E-03    0.150509E-18
    0.881540E-01   -0.617802E-03    0.151318E-18
    0.881540E-01   -0.615801E-03    0.150828E-18
</DataArray>
</PointData>
<CellData>
<DataArray Name="DP" type="Float64" format="ascii" NumberOfComponents="1">
      0.000000E+0000
      0.000000E+0000
      0.000000E+0000
      0.000000E+0000
      0.000000E+0000
      0.000000E+0000
      0.000000E+0000
      0.000000E+0000
      0.000000E+0000
      0.000000E+0000
      0.000000E+0000
      0.000000E+0000
      0.000000E+0000
      0.000000E+0000
      0.000000E+0000
      0.000000E+0000
      0.000000E+0000
      0.000000E+0000
      0.000000E+0000
      0.000000E+0000
      0.000000E+0000
      0.000000E+0000
      0.000000E+0000
      0.000000E+0000
      0.000000E+0000
      0.000000E+0000
      0.000000E+0000
      0.000000E+0000
      0.000000E+0000
      0.000000E+0000
      0.000000E+0000
      0.000000E+0000
      0.000000E+0000
      0.000000E+0000
      0.000000E+0000
      0.000000E+0000
      0.000000E+0000
      0.000000E+0000
      0.000000E+0000
      0.000000E+0000
      0.000000E+0000
      0.000000E+0000
      0.000000E+0000
      0.000000E+0000
      0.000000E+0000
      0.000000E+0000
      0.000000E+0000
      0.000000E+0000
      0.000000E+0000
      0.000000E+0000
      0.000000E+0000
      0.000000E+0000
      0.000000E+0000
      0.000000E+0000
      0.000000E+0000
      0.000000E+0000
      0.000000E+0000
      0.000000E+0000
      0.000000E+0000
      0.000000E+0000
      0.000000E+0000
      0.000000E+0000
      0.000000E+0000
      0.000000E+0000
      0.000000E+0000
      0.000000E+0000
      0.000000E+0000
      0.000000E+0000
      0.000000E+0000
      0.000000E+0000
      0.000000E+0000
      0.000000E+0000
      0.000000E+0000
      0.000000E+0000
      0.000000E+0000
      0.000000E+0000
      0.000000E+0000
      0.000000E+0000
      0.000000E+0000
      0.000000E+0000
      0.000000E+0000
      0.000000E+0000
      0.000000E+0000
      0.000000E+0000
      0.000000E+0000
      0.000000E+0000
      0.000000E+0000
      0.000000E+0000
      0.000000E+0000
      0.000000E+0000
      0.000000E+0000
      0.000000E+0000
      0.000000E+0000
      0.000000E+0000
      0.000000E+0000
      0.000000E+0000
      0.000000E+0000
      0.000000E+0000
      0.000000E+0000
      0.000000E+0000
</DataArray>
<DataArray Name="P" type="Float64" format="ascii" NumberOfComponents="1">
      0.392447E+0000
      0.387140E+0000
      0.381779E+0000
      0.376365E+0000
      0.370897E+0000
      0.365374E+0000
      0.359796E+0000
      0.354161E+0000
      0.348471E+0000
      0.342723E+0000
      0.392449E+0000
      0.387141E+0000
      0.381780E+0000
      0.376366E+0000
      0.370897E+0000
      0.365373E+0000
      0.359795E+0000
      0.354160E+0000
      0.348468E+0000
      0.342720E+0000
      0.392452E+0000
      0.387143E+0000
      0.381782E+0000
      0.376367E+0000
      0.370897E+0000
      0.365373E+0000
      0.359794E+0000
      0.354158E+0000
      0.348466E+0000
      0.342717E+0000
      0.392455E+0000
      0.387146E+0000
      0.381784E+0000
      0.376368E+0000
      0.370898E+0000
      0.365373E+0000
      0.359793E+0000
      0.354157E+0000
      0.348465E+0000
      0.342716E+0000
      0.392457E+0000
      0.387148E+0000
      0.381786E+0000
      0.376369E+0000
      0.370899E+0000
      0.365374E+0000
      0.359793E+0000
      0.354157E+0000
      0.348464E+0000
      0.342714E+0000
      0.392460E+0000
      0.387151E+0000
      0.381788E+0000
      0.376371E+0000
      0.370900E+0000
      0.365374E+0000
      0.359793E+0000
      0.354157E+0000
      0.348463E+0000
      0.342713E+0000
      0.392464E+0000
      0.387153E+0000
      0.381790E+0000
      0.376373E+0000
      0.370901E+0000
      0.365375E+0000
      0.359794E+0000
      0.354157E+0000
      0.348463E+0000
      0.342712E+0000
      0.392467E+0000
      0.387156E+0000
      0.381792E+0000
      0.376375E+0000
      0.370903E+0000
      0.365376E+0000
      0.359795E+0000
      0.354157E+0000
      0.348463E+0000
      0.342712E+0000
      0.392470E+0000
      0.387159E+0000
      0.381795E+0000
      0.376377E+0000
      0.370905E+0000
      0.365378E+0000
      0.359796E+0000
      0.354157E+0000
      0.348463E+0000
      0.342711E+0000
      0.392474E+0000
      0.387162E+0000
      0.381797E+0000
      0.376379E+0000
      0.370906E+0000
      0.365379E+0000
      0.359797E+0000
      0.354158E+0000
      0.348463E+0000
      0.342711E+0000
</DataArray>
<DataArray Name="RHO" type="Float64" format="ascii" NumberOfComponents="1">
      0.117197E+0001
      0.117197E+0001
      0.117197E+0001
      0.117197E+0001
      0.117197E+0001
      0.117197E+0001
      0.117197E+0001
      0.117197E+0001
      0.117197E+0001
      0.117197E+0001
      0.117197E+0001
      0.117197E+0001
      0.117197E+0001
      0.117197E+0001
      0.117197E+0001
      0.117197E+0001
      0.117197E+0001
      0.117197E+0001
      0.117197E+0001
      0.117197E+0001
      0.117197E+0001
      0.117197E+0001
      0.117197E+0001
      0.117197E+0001
      0.117197E+0001
      0.117197E+0001
      0.117197E+0001
      0.117197E+0001
      0.117197E+0001
      0.117197E+0001
      0.117197E+0001
      0.117197E+0001
      0.117197E+0001
      0.117197E+0001
      0.117197E+0001
      0.117197E+0001
      0.117197E+0001
      0.117197E+0001
      0.117197E+0001
      0.117197E+0001
      0.117197E+0001
      0.117197E+0001
      0.117197E+0001
      0.117197E+0001
      0.117197E+0001
      0.117197E+0001
      0.117197E+0001
      0.117197E+0001
      0.117197E+0001
      0.117197E+0001
      0.117197E+0001
      0.117197E+0001
      0.117197E+0001
      0.117197E+0001
      0.117197E+0001
      0.117197E+0001
      0.117197E+0001
      0.117197E+0001
      0.117197E+0001
      0.117197E+0001
      0.117197E+0001
      0.117197E+0001