<?xml version="1.0"?>
<VTKFile type="StructuredGrid" version="0.1" byte_order="LittleEndian">
<StructuredGrid WholeExtent="          60          70          50          60           0           1">
<Piece Extent="          60          70          50          60           0           1">
<Points>
<DataArray NumberOfComponents="3" type="Float64" format="ascii">
    0.206889E-01    0.123834E-01    0.000000E+00
    0.211491E-01    0.123834E-01    0.000000E+00
    0.216139E-01    0.123834E-01    0.000000E+00
    0.220834E-01    0.123834E-01    0.000000E+00
    0.225576E-01    0.123834E-01    0.000000E+00
    0.230365E-01    0.123834E-01    0.000000E+00
    0.235201E-01    0.123834E-01    0.000000E+00
    0.240087E-01    0.123834E-01    0.000000E+00
    0.245021E-01    0.123834E-01    0.000000E+00
    0.250004E-01    0.123834E-01    0.000000E+00
    0.255037E-01    0.123834E-01    0.000000E+00
    0.206889E-01    0.127657E-01    0.000000E+00
    0.211491E-01    0.127657E-01    0.000000E+00
    0.216139E-01    0.127657E-01    0.000000E+00
    0.220834E-01    0.127657E-01    0.000000E+00
    0.225576E-01    0.127657E-01    0.000000E+00
    0.230365E-01    0.127657E-01    0.000000E+00
    0.235201E-01    0.127657E-01    0.000000E+00
    0.240087E-01    0.127657E-01    0.000000E+00
    0.245021E-01    0.127657E-01    0.000000E+00
    0.250004E-01    0.127657E-01    0.000000E+00
    0.255037E-01    0.127657E-01    0.000000E+00
    0.206889E-01    0.131594E-01    0.000000E+00
    0.211491E-01    0.131594E-01    0.000000E+00
    0.216139E-01    0.131594E-01    0.000000E+00
    0.220834E-01    0.131594E-01    0.000000E+00
    0.225576E-01    0.131594E-01    0.000000E+00
    0.230365E-01    0.131594E-01    0.000000E+00
    0.235201E-01    0.131594E-01    0.000000E+00
    0.240087E-01    0.131594E-01    0.000000E+00
    0.245021E-01    0.131594E-01    0.000000E+00
    0.250004E-01    0.131594E-01    0.000000E+00
    0.255037E-01    0.131594E-01    0.000000E+00
    0.206889E-01    0.135649E-01    0.000000E+00
    0.211491E-01    0.135649E-01    0.000000E+00
    0.216139E-01    0.135649E-01    0.000000E+00
    0.220834E-01    0.135649E-01    0.000000E+00
    0.225576E-01    0.135649E-01    0.000000E+00
    0.230365E-01    0.135649E-01    0.000000E+00
    0.235201E-01    0.135649E-01    0.000000E+00
    0.240087E-01    0.135649E-01    0.000000E+00
    0.245021E-01    0.135649E-01    0.000000E+00
    0.250004E-01    0.135649E-01    0.000000E+00
    0.255037E-01    0.135649E-01    0.000000E+00
    0.206889E-01    0.139826E-01    0.000000E+00
    0.211491E-01    0.139826E-01    0.000000E+00
    0.216139E-01    0.139826E-01    0.000000E+00
    0.220834E-01    0.139826E-01    0.000000E+00
    0.225576E-01    0.139826E-01    0.000000E+00
    0.230365E-01    0.139826E-01    0.000000E+00
    0.235201E-01    0.139826E-01    0.000000E+00
    0.240087E-01    0.139826E-01    0.000000E+00
    0.245021E-01    0.139826E-01    0.000000E+00
    0.250004E-01    0.139826E-01    0.000000E+00
    0.255037E-01    0.139826E-01    0.000000E+00
    0.206889E-01    0.144128E-01    0.000000E+00
    0.211491E-01    0.144128E-01    0.000000E+00
    0.216139E-01    0.144128E-01    0.000000E+00
    0.220834E-01    0.144128E-01    0.000000E+00
    0.225576E-01    0.144128E-01    0.000000E+00
    0.230365E-01    0.144128E-01    0.000000E+00
    0.235201E-01    0.144128E-01    0.000000E+00
    0.240087E-01    0.144128E-01    0.000000E+00
    0.245021E-01    0.144128E-01    0.000000E+00
    0.250004E-01    0.144128E-01    0.000000E+00
    0.255037E-01    0.144128E-01    0.000000E+00
    0.206889E-01    0.148560E-01    0.000000E+00
    0.211491E-01    0.148560E-01    0.000000E+00
    0.216139E-01    0.148560E-01    0.000000E+00
    0.220834E-01    0.148560E-01    0.000000E+00
    0.225576E-01    0.148560E-01    0.000000E+00
    0.230365E-01    0.148560E-01    0.000000E+00
    0.235201E-01    0.148560E-01    0.000000E+00
    0.240087E-01    0.148560E-01    0.000000E+00
    0.245021E-01    0.148560E-01    0.000000E+00
    0.250004E-01    0.148560E-01    0.000000E+00
    0.255037E-01    0.148560E-01    0.000000E+00
    0.206889E-01    0.153124E-01    0.000000E+00
    0.211491E-01    0.153124E-01    0.000000E+00
    0.216139E-01    0.153124E-01    0.000000E+00
    0.220834E-01    0.153124E-01    0.000000E+00
    0.225576E-01    0.153124E-01    0.000000E+00
    0.230365E-01    0.153124E-01    0.000000E+00
    0.235201E-01    0.153124E-01    0.000000E+00
    0.240087E-01    0.153124E-01    0.000000E+00
    0.245021E-01    0.153124E-01    0.000000E+00
    0.250004E-01    0.153124E-01    0.000000E+00
    0.255037E-01    0.153124E-01    0.000000E+00
    0.206889E-01    0.157825E-01    0.000000E+00
    0.211491E-01    0.157825E-01    0.000000E+00
    0.216139E-01    0.157825E-01    0.000000E+00
    0.220834E-01    0.157825E-01    0.000000E+00
    0.225576E-01    0.157825E-01    0.000000E+00
    0.230365E-01    0.157825E-01    0.000000E+00
    0.235201E-01    0.157825E-01    0.000000E+00
    0.240087E-01    0.157825E-01    0.000000E+00
    0.245021E-01    0.157825E-01    0.000000E+00
    0.250004E-01    0.157825E-01    0.000000E+00
    0.255037E-01    0.157825E-01    0.000000E+00
    0.206889E-01    0.162667E-01    0.000000E+00
    0.211491E-01    0.162667E-01    0.000000E+00
    0.216139E-01    0.162667E-01    0.000000E+00
    0.220834E-01    0.162667E-01    0.000000E+00
    0.225576E-01    0.162667E-01    0.000000E+00
    0.230365E-01    0.162667E-01    0.000000E+00
    0.235201E-01    0.162667E-01    0.000000E+00
    0.240087E-01    0.162667E-01    0.000000E+00
    0.245021E-01    0.162667E-01    0.000000E+00
    0.250004E-01    0.162667E-01    0.000000E+00
    0.255037E-01    0.162667E-01    0.000000E+00
    0.206889E-01    0.167655E-01    0.000000E+00
    0.211491E-01    0.167655E-01    0.000000E+00
    0.216139E-01    0.167655E-01    0.000000E+00
    0.220834E-01    0.167655E-01    0.000000E+00
    0.225576E-01    0.167655E-01    0.000000E+00
    0.230365E-01    0.167655E-01    0.000000E+00
    0.235201E-01    0.167655E-01    0.000000E+00
    0.240087E-01    0.167655E-01    0.000000E+00
    0.245021E-01    0.167655E-01    0.000000E+00
    0.250004E-01    0.167655E-01    0.000000E+00
    0.255037E-01    0.167655E-01    0.000000E+00
    0.206889E-01    0.123834E-01    0.160000E-02
    0.211491E-01    0.123834E-01    0.160000E-02
    0.216139E-01    0.123834E-01    0.160000E-02
    0.220834E-01    0.123834E-01    0.160000E-02
    0.225576E-01    0.123834E-01    0.160000E-02
    0.230365E-01    0.123834E-01    0.160000E-02
    0.235201E-01    0.123834E-01    0.160000E-02
    0.240087E-01    0.123834E-01    0.160000E-02
    0.245021E-01    0.123834E-01    0.160000E-02
    0.250004E-01    0.123834E-01    0.160000E-02
    0.255037E-01    0.123834E-01    0.160000E-02
    0.206889E-01    0.127657E-01    0.160000E-02
    0.211491E-01    0.127657E-01    0.160000E-02
    0.216139E-01    0.127657E-01    0.160000E-02
    0.220834E-01    0.127657E-01    0.160000E-02
    0.225576E-01    0.127657E-01    0.160000E-02
    0.230365E-01    0.127657E-01    0.160000E-02
    0.235201E-01    0.127657E-01    0.160000E-02
    0.240087E-01    0.127657E-01    0.160000E-02
    0.245021E-01    0.127657E-01    0.160000E-02
    0.250004E-01    0.127657E-01    0.160000E-02
    0.255037E-01    0.127657E-01    0.160000E-02
    0.206889E-01    0.131594E-01    0.160000E-02
    0.211491E-01    0.131594E-01    0.160000E-02
    0.216139E-01    0.131594E-01    0.160000E-02
    0.220834E-01    0.131594E-01    0.160000E-02
    0.225576E-01    0.131594E-01    0.160000E-02
    0.230365E-01    0.131594E-01    0.160000E-02
    0.235201E-01    0.131594E-01    0.160000E-02
    0.240087E-01    0.131594E-01    0.160000E-02
    0.245021E-01    0.131594E-01    0.160000E-02
    0.250004E-01    0.131594E-01    0.160000E-02
    0.255037E-01    0.131594E-01    0.160000E-02
    0.206889E-01    0.135649E-01    0.160000E-02
    0.211491E-01    0.135649E-01    0.160000E-02
    0.216139E-01    0.135649E-01    0.160000E-02
    0.220834E-01    0.135649E-01    0.160000E-02
    0.225576E-01    0.135649E-01    0.160000E-02
    0.230365E-01    0.135649E-01    0.160000E-02
    0.235201E-01    0.135649E-01    0.160000E-02
    0.240087E-01    0.135649E-01    0.160000E-02
    0.245021E-01    0.135649E-01    0.160000E-02
    0.250004E-01    0.135649E-01    0.160000E-02
    0.255037E-01    0.135649E-01    0.160000E-02
    0.206889E-01    0.139826E-01    0.160000E-02
    0.211491E-01    0.139826E-01    0.160000E-02
    0.216139E-01    0.139826E-01    0.160000E-02
    0.220834E-01    0.139826E-01    0.160000E-02
    0.225576E-01    0.139826E-01    0.160000E-02
    0.230365E-01    0.139826E-01    0.160000E-02
    0.235201E-01    0.139826E-01    0.160000E-02
    0.240087E-01    0.139826E-01    0.160000E-02
    0.245021E-01    0.139826E-01    0.160000E-02
    0.250004E-01    0.139826E-01    0.160000E-02
    0.255037E-01    0.139826E-01    0.160000E-02
    0.206889E-01    0.144128E-01    0.160000E-02
    0.211491E-01    0.144128E-01    0.160000E-02
    0.216139E-01    0.144128E-01    0.160000E-02
    0.220834E-01    0.144128E-01    0.160000E-02
    0.225576E-01    0.144128E-01    0.160000E-02
    0.230365E-01    0.144128E-01    0.160000E-02
    0.235201E-01    0.144128E-01    0.160000E-02
    0.240087E-01    0.144128E-01    0.160000E-02
    0.245021E-01    0.144128E-01    0.160000E-02
    0.250004E-01    0.144128E-01    0.160000E-02
    0.255037E-01    0.144128E-01    0.160000E-02
    0.206889E-01    0.148560E-01    0.160000E-02
    0.211491E-01    0.148560E-01    0.160000E-02
    0.216139E-01    0.148560E-01    0.160000E-02
    0.220834E-01    0.148560E-01    0.160000E-02
    0.225576E-01    0.148560E-01    0.160000E-02
    0.230365E-01    0.148560E-01    0.160000E-02
    0.235201E-01    0.148560E-01    0.160000E-02
    0.240087E-01    0.148560E-01    0.160000E-02
    0.245021E-01    0.148560E-01    0.160000E-02
    0.250004E-01    0.148560E-01    0.160000E-02
    0.255037E-01    0.148560E-01    0.160000E-02
    0.206889E-01    0.153124E-01    0.160000E-02
    0.211491E-01    0.153124E-01    0.160000E-02
    0.216139E-01    0.153124E-01    0.160000E-02
    0.220834E-01    0.153124E-01    0.160000E-02
    0.225576E-01    0.153124E-01    0.160000E-02
    0.230365E-01    0.153124E-01    0.160000E-02
    0.235201E-01    0.153124E-01    0.160000E-02
    0.240087E-01    0.153124E-01    0.160000E-02
    0.245021E-01    0.153124E-01    0.160000E-02
    0.250004E-01    0.153124E-01    0.160000E-02
    0.255037E-01    0.153124E-01    0.160000E-02
    0.206889E-01    0.157825E-01    0.160000E-02
    0.211491E-01    0.157825E-01    0.160000E-02
    0.216139E-01    0.157825E-01    0.160000E-02
    0.220834E-01    0.157825E-01    0.160000E-02
    0.225576E-01    0.157825E-01    0.160000E-02
    0.230365E-01    0.157825E-01    0.160000E-02
    0.235201E-01    0.157825E-01    0.160000E-02
    0.240087E-01    0.157825E-01    0.160000E-02
    0.245021E-01    0.157825E-01    0.160000E-02
    0.250004E-01    0.157825E-01    0.160000E-02
    0.255037E-01    0.157825E-01    0.160000E-02
    0.206889E-01    0.162667E-01    0.160000E-02
    0.211491E-01    0.162667E-01    0.160000E-02
    0.216139E-01    0.162667E-01    0.160000E-02
    0.220834E-01    0.162667E-01    0.160000E-02
    0.225576E-01    0.162667E-01    0.160000E-02
    0.230365E-01    0.162667E-01    0.160000E-02
    0.235201E-01    0.162667E-01    0.160000E-02
    0.240087E-01    0.162667E-01    0.160000E-02
    0.245021E-01    0.162667E-01    0.160000E-02
    0.250004E-01    0.162667E-01    0.160000E-02
    0.255037E-01    0.162667E-01    0.160000E-02
    0.206889E-01    0.167655E-01    0.160000E-02
    0.211491E-01    0.167655E-01    0.160000E-02
    0.216139E-01    0.167655E-01    0.160000E-02
    0.220834E-01    0.167655E-01    0.160000E-02
    0.225576E-01    0.167655E-01    0.160000E-02
    0.230365E-01    0.167655E-01    0.160000E-02
    0.235201E-01    0.167655E-01    0.160000E-02
    0.240087E-01    0.167655E-01    0.160000E-02
    0.245021E-01    0.167655E-01    0.160000E-02
    0.250004E-01    0.167655E-01    0.160000E-02
    0.255037E-01    0.167655E-01    0.160000E-02
</DataArray>
</Points>
<PointData>
<DataArray Name="Velocity" type="Float64" format="ascii" NumberOfComponents="3">
    0.857875E-01   -0.413519E-04    0.000000E+00
    0.860118E-01   -0.122919E-03    0.000000E+00
    0.862138E-01   -0.194126E-03    0.000000E+00
    0.863950E-01   -0.243800E-03    0.000000E+00
    0.865572E-01   -0.275294E-03    0.000000E+00
    0.867022E-01   -0.292334E-03    0.000000E+00
    0.868320E-01   -0.298587E-03    0.000000E+00
    0.869484E-01   -0.297329E-03    0.000000E+00
    0.870530E-01   -0.291271E-03    0.000000E+00
    0.871474E-01   -0.282504E-03    0.000000E+00
    0.872328E-01   -0.272532E-03    0.000000E+00
    0.858395E-01   -0.229580E-03    0.000000E+00
    0.860495E-01   -0.291628E-03    0.000000E+00
    0.862402E-01   -0.342162E-03    0.000000E+00
    0.864125E-01   -0.373229E-03    0.000000E+00
    0.865679E-01   -0.388263E-03    0.000000E+00
    0.867077E-01   -0.390960E-03    0.000000E+00
    0.868337E-01   -0.384848E-03    0.000000E+00
    0.869473E-01   -0.373002E-03    0.000000E+00
    0.870500E-01   -0.357907E-03    0.000000E+00
    0.871431E-01   -0.341420E-03    0.000000E+00
    0.872277E-01   -0.324830E-03    0.000000E+00
    0.859317E-01   -0.395637E-03    0.000000E+00
    0.861180E-01   -0.441316E-03    0.000000E+00
    0.862886E-01   -0.474711E-03    0.000000E+00
    0.864445E-01   -0.490447E-03    0.000000E+00
    0.865869E-01   -0.491942E-03    0.000000E+00
    0.867168E-01   -0.482791E-03    0.000000E+00
    0.868353E-01   -0.466367E-03    0.000000E+00
    0.869437E-01   -0.445561E-03    0.000000E+00
    0.870428E-01   -0.422670E-03    0.000000E+00
    0.871336E-01   -0.399378E-03    0.000000E+00
    0.872169E-01   -0.376819E-03    0.000000E+00
    0.860230E-01   -0.540857E-03    0.000000E+00
    0.861876E-01   -0.573109E-03    0.000000E+00
    0.863398E-01   -0.592593E-03    0.000000E+00
    0.864805E-01   -0.595975E-03    0.000000E+00
    0.866106E-01   -0.586582E-03    0.000000E+00
    0.867309E-01   -0.567863E-03    0.000000E+00
    0.868421E-01   -0.543020E-03    0.000000E+00
    0.869450E-01   -0.514779E-03    0.000000E+00
    0.870402E-01   -0.485284E-03    0.000000E+00
    0.871283E-01   -0.456092E-03    0.000000E+00
    0.872098E-01   -0.428231E-03    0.000000E+00
    0.861170E-01   -0.666889E-03    0.000000E+00
    0.862621E-01   -0.688359E-03    0.000000E+00
    0.863978E-01   -0.696799E-03    0.000000E+00
    0.865246E-01   -0.690453E-03    0.000000E+00
    0.866433E-01   -0.672503E-03    0.000000E+00
    0.867544E-01   -0.646226E-03    0.000000E+00
    0.868583E-01   -0.614653E-03    0.000000E+00
    0.869555E-01   -0.580359E-03    0.000000E+00
    0.870464E-01   -0.545365E-03    0.000000E+00
    0.871313E-01   -0.511135E-03    0.000000E+00
    0.872105E-01   -0.478631E-03    0.000000E+00
    0.862156E-01   -0.775636E-03    0.000000E+00
    0.863437E-01   -0.788628E-03    0.000000E+00
    0.864647E-01   -0.788489E-03    0.000000E+00
    0.865791E-01   -0.774647E-03    0.000000E+00
    0.866873E-01   -0.750117E-03    0.000000E+00
    0.867897E-01   -0.717992E-03    0.000000E+00
    0.868865E-01   -0.681137E-03    0.000000E+00
    0.869779E-01   -0.641993E-03    0.000000E+00
    0.870641E-01   -0.602483E-03    0.000000E+00
    0.871453E-01   -0.564005E-03    0.000000E+00
    0.872215E-01   -0.527484E-03    0.000000E+00
    0.863194E-01   -0.869218E-03    0.000000E+00
    0.864330E-01   -0.875672E-03    0.000000E+00
    0.865414E-01   -0.868989E-03    0.000000E+00
    0.866449E-01   -0.849471E-03    0.000000E+00
    0.867437E-01   -0.819957E-03    0.000000E+00
    0.868380E-01   -0.783365E-03    0.000000E+00
    0.869279E-01   -0.742409E-03    0.000000E+00
    0.870135E-01   -0.699412E-03    0.000000E+00
    0.870947E-01   -0.656219E-03    0.000000E+00
    0.871716E-01   -0.614184E-03    0.000000E+00
    0.872443E-01   -0.574216E-03    0.000000E+00
    0.864281E-01   -0.949932E-03    0.000000E+00
    0.865298E-01   -0.951412E-03    0.000000E+00
    0.866276E-01   -0.939780E-03    0.000000E+00
    0.867218E-01   -0.915977E-03    0.000000E+00
    0.868123E-01   -0.882681E-03    0.000000E+00
    0.868993E-01   -0.842656E-03    0.000000E+00
    0.869826E-01   -0.798487E-03    0.000000E+00
    0.870624E-01   -0.752402E-03    0.000000E+00
    0.871384E-01   -0.706187E-03    0.000000E+00
    0.872107E-01   -0.661168E-03    0.000000E+00
    0.872793E-01   -0.618249E-03    0.000000E+00
    0.865410E-01   -0.102020E-02    0.000000E+00
    0.866333E-01   -0.101790E-02    0.000000E+00
    0.867227E-01   -0.100246E-02    0.000000E+00
    0.868091E-01   -0.975326E-03    0.000000E+00
    0.868925E-01   -0.939040E-03    0.000000E+00
    0.869728E-01   -0.896253E-03    0.000000E+00
    0.870500E-01   -0.849454E-03    0.000000E+00
    0.871239E-01   -0.800800E-03    0.000000E+00
    0.871946E-01   -0.752036E-03    0.000000E+00
    0.872619E-01   -0.704471E-03    0.000000E+00
    0.873258E-01   -0.659009E-03    0.000000E+00
    0.866572E-01   -0.108252E-02    0.000000E+00
    0.867425E-01   -0.107724E-02    0.000000E+00
    0.868254E-01   -0.105869E-02    0.000000E+00
    0.869056E-01   -0.102872E-02    0.000000E+00
    0.869830E-01   -0.989809E-03    0.000000E+00
    0.870573E-01   -0.944555E-03    0.000000E+00
    0.871286E-01   -0.895390E-03    0.000000E+00
    0.871968E-01   -0.844435E-03    0.000000E+00
    0.872618E-01   -0.793407E-03    0.000000E+00
    0.873237E-01   -0.743601E-03    0.000000E+00
    0.873825E-01   -0.695919E-03    0.000000E+00
    0.867758E-01   -0.113935E-02    0.000000E+00
    0.868563E-01   -0.113151E-02    0.000000E+00
    0.869345E-01   -0.111006E-02    0.000000E+00
    0.870098E-01   -0.107727E-02    0.000000E+00
    0.870819E-01   -0.103566E-02    0.000000E+00
    0.871507E-01   -0.987847E-03    0.000000E+00
    0.872162E-01   -0.936270E-03    0.000000E+00
    0.872784E-01   -0.883039E-03    0.000000E+00
    0.873375E-01   -0.829857E-03    0.000000E+00
    0.873935E-01   -0.778003E-03    0.000000E+00
    0.874467E-01   -0.728363E-03    0.000000E+00
    0.857856E-01   -0.278740E-04    0.682717E-20
    0.860105E-01   -0.122919E-03    0.301064E-19
    0.862129E-01   -0.194126E-03    0.475471E-19
    0.863943E-01   -0.243800E-03    0.597138E-19
    0.865565E-01   -0.275294E-03    0.674276E-19
    0.867017E-01   -0.292334E-03    0.716011E-19
    0.868315E-01   -0.298587E-03    0.731328E-19
    0.869480E-01   -0.297329E-03    0.728246E-19
    0.870527E-01   -0.291271E-03    0.713408E-19
    0.871471E-01   -0.282504E-03    0.691934E-19
    0.872326E-01   -0.272532E-03    0.667512E-19
    0.858395E-01   -0.219015E-03    0.536431E-19
    0.860495E-01   -0.291628E-03    0.714283E-19
    0.862402E-01   -0.342162E-03    0.838055E-19
    0.864125E-01   -0.373229E-03    0.914148E-19
    0.865679E-01   -0.388263E-03    0.950971E-19
    0.867077E-01   -0.390960E-03    0.957576E-19
    0.868337E-01   -0.384848E-03    0.942605E-19
    0.869473E-01   -0.373002E-03    0.913593E-19
    0.870500E-01   -0.357907E-03    0.876619E-19
    0.871431E-01   -0.341420E-03    0.836237E-19
    0.872277E-01   -0.324830E-03    0.795604E-19
    0.859317E-01   -0.387538E-03    0.949195E-19
    0.861180E-01   -0.441316E-03    0.108091E-18
    0.862886E-01   -0.474711E-03    0.116271E-18
    0.864445E-01   -0.490447E-03    0.120125E-18
    0.865869E-01   -0.491942E-03    0.120491E-18
    0.867168E-01   -0.482791E-03    0.118250E-18
    0.868353E-01   -0.466367E-03    0.114227E-18
    0.869437E-01   -0.445561E-03    0.109131E-18
    0.870428E-01   -0.422670E-03    0.103524E-18
    0.871336E-01   -0.399378E-03    0.978193E-19
    0.872169E-01   -0.376819E-03    0.922941E-19
    0.860230E-01   -0.534796E-03    0.130987E-18
    0.861876E-01   -0.573109E-03    0.140371E-18
    0.863398E-01   -0.592593E-03    0.145143E-18
    0.864805E-01   -0.595975E-03    0.145972E-18
    0.866106E-01   -0.586582E-03    0.143671E-18
    0.867309E-01   -0.567863E-03    0.139086E-18
    0.868421E-01   -0.543020E-03    0.133001E-18
    0.869450E-01   -0.514779E-03    0.126084E-18
    0.870402E-01   -0.485284E-03    0.118860E-18
    0.871283E-01   -0.456092E-03    0.111710E-18
    0.872098E-01   -0.428231E-03    0.104886E-18
    0.861170E-01   -0.662477E-03    0.162260E-18
    0.862621E-01   -0.688359E-03    0.168599E-18
    0.863978E-01   -0.696799E-03    0.170667E-18
    0.865246E-01   -0.690453E-03    0.169112E-18
    0.866433E-01   -0.672503E-03    0.164716E-18
    0.867544E-01   -0.646226E-03    0.158280E-18
    0.868583E-01   -0.614653E-03    0.150547E-18
    0.869555E-01   -0.580359E-03    0.142147E-18
    0.870464E-01   -0.545365E-03    0.133576E-18
    0.871313E-01   -0.511135E-03    0.125192E-18
    0.872105E-01   -0.478631E-03    0.117231E-18
    0.862156E-01   -0.772531E-03    0.189216E-18
    0.863437E-01   -0.788628E-03    0.193158E-18
    0.864647E-01   -0.788489E-03    0.193124E-18
    0.865791E-01   -0.774647E-03    0.189734E-18
    0.866873E-01   -0.750117E-03    0.183726E-18
    0.867897E-01   -0.717992E-03    0.175857E-18
    0.868865E-01   -0.681137E-03    0.166830E-18
    0.869779E-01   -0.641993E-03    0.157243E-18
    0.870641E-01   -0.602483E-03    0.147566E-18
    0.871453E-01   -0.564005E-03    0.138141E-18
    0.872215E-01   -0.527484E-03    0.129196E-18
    0.863194E-01   -0.867129E-03    0.212385E-18
    0.864330E-01   -0.875672E-03    0.214478E-18
    0.865414E-01   -0.868989E-03    0.212841E-18
    0.866449E-01   -0.849471E-03    0.208060E-18
    0.867437E-01   -0.819957E-03    0.200832E-18
    0.868380E-01   -0.783365E-03    0.191869E-18
    0.869279E-01   -0.742409E-03    0.181838E-18
    0.870135E-01   -0.699412E-03    0.171306E-18
    0.870947E-01   -0.656219E-03    0.160727E-18
    0.871716E-01   -0.614184E-03    0.150432E-18
    0.872443E-01   -0.574216E-03    0.140642E-18
    0.864281E-01   -0.948618E-03    0.232344E-18
    0.865298E-01   -0.951412E-03    0.233029E-18
    0.866276E-01   -0.939780E-03    0.230180E-18
    0.867218E-01   -0.915977E-03    0.224350E-18
    0.868123E-01   -0.882681E-03    0.216194E-18
    0.868993E-01   -0.842656E-03    0.206391E-18
    0.869826E-01   -0.798487E-03    0.195573E-18
    0.870624E-01   -0.752402E-03    0.184285E-18
    0.871384E-01   -0.706187E-03    0.172966E-18
    0.872107E-01   -0.661168E-03    0.161939E-18
    0.872793E-01   -0.618249E-03    0.151427E-18
    0.865410E-01   -0.101948E-02    0.249700E-18
    0.866333E-01   -0.101790E-02    0.249313E-18
    0.867227E-01   -0.100246E-02    0.245533E-18
    0.868091E-01   -0.975326E-03    0.238886E-18
    0.868925E-01   -0.939040E-03    0.229998E-18
    0.869728E-01   -0.896253E-03    0.219519E-18
    0.870500E-01   -0.849454E-03    0.208056E-18
    0.871239E-01   -0.800800E-03    0.196139E-18
    0.871946E-01   -0.752036E-03    0.184196E-18
    0.872619E-01   -0.704471E-03    0.172546E-18
    0.873258E-01   -0.659009E-03    0.161411E-18
    0.866572E-01   -0.108224E-02    0.265073E-18
    0.867425E-01   -0.107724E-02    0.263847E-18
    0.868254E-01   -0.105869E-02    0.259305E-18
    0.869056E-01   -0.102872E-02    0.251963E-18
    0.869830E-01   -0.989809E-03    0.242433E-18
    0.870573E-01   -0.944555E-03    0.231349E-18
    0.871286E-01   -0.895390E-03    0.219307E-18
    0.871968E-01   -0.844435E-03    0.206827E-18
    0.872618E-01   -0.793407E-03    0.194329E-18
    0.873237E-01   -0.743601E-03    0.182130E-18
    0.873825E-01   -0.695919E-03    0.170451E-18
    0.867758E-01   -0.113944E-02    0.279082E-18
    0.868563E-01   -0.113151E-02    0.277140E-18
    0.869345E-01   -0.111006E-02    0.271887E-18
    0.870098E-01   -0.107727E-02    0.263854E-18
    0.870819E-01   -0.103566E-02    0.253663E-18
    0.871507E-01   -0.987847E-03    0.241953E-18
    0.872162E-01   -0.936270E-03    0.229320E-18
    0.872784E-01   -0.883039E-03    0.216282E-18
    0.873375E-01   -0.829857E-03    0.203256E-18
    0.873935E-01   -0.778003E-03    0.190556E-18
    0.874467E-01   -0.728363E-03    0.178398E-18
</DataArray>
</PointData>
<CellData>
<DataArray Name="DP" type="Float64" format="ascii" NumberOfComponents="1">
      0.000000E+0000
      0.000000E+0000
      0.000000E+0000
      0.000000E+0000
      0.000000E+0000
      0.000000E+0000
      0.000000E+0000
      0.000000E+0000
      0.000000E+0000
      0.000000E+0000
      0.000000E+0000
      0.000000E+0000
      0.000000E+0000
      0.000000E+0000
      0.000000E+0000
      0.000000E+0000
      0.000000E+0000
      0.000000E+0000
      0.000000E+0000
      0.000000E+0000
      0.000000E+0000
      0.000000E+0000
      0.000000E+0000
      0.000000E+0000
      0.000000E+0000
      0.000000E+0000
      0.000000E+0000
      0.000000E+0000
      0.000000E+0000
      0.000000E+0000
      0.000000E+0000
      0.000000E+0000
      0.000000E+0000
      0.000000E+0000
      0.000000E+0000
      0.000000E+0000
      0.000000E+0000
      0.000000E+0000
      0.000000E+0000
      0.000000E+0000
      0.000000E+0000
      0.000000E+0000
      0.000000E+0000
      0.000000E+0000
      0.000000E+0000
      0.000000E+0000
      0.000000E+0000
      0.000000E+0000
      0.000000E+0000
      0.000000E+0000
      0.000000E+0000
      0.000000E+0000
      0.000000E+0000
      0.000000E+0000
      0.000000E+0000
      0.000000E+0000
      0.000000E+0000
      0.000000E+0000
      0.000000E+0000
      0.000000E+0000
      0.000000E+0000
      0.000000E+0000
      0.000000E+0000
      0.000000E+0000
      0.000000E+0000
      0.000000E+0000
      0.000000E+0000
      0.000000E+0000
      0.000000E+0000
      0.000000E+0000
      0.000000E+0000
      0.000000E+0000
      0.000000E+0000
      0.000000E+0000
      0.000000E+0000
      0.000000E+0000
      0.000000E+0000
      0.000000E+0000
      0.000000E+0000
      0.000000E+0000
      0.000000E+0000
      0.000000E+0000
      0.000000E+0000
      0.000000E+0000
      0.000000E+0000
      0.000000E+0000
      0.000000E+0000
      0.000000E+0000
      0.000000E+0000
      0.000000E+0000
      0.000000E+0000
      0.000000E+0000
      0.000000E+0000
      0.000000E+0000
      0.000000E+0000
      0.000000E+0000
      0.000000E+0000
      0.000000E+0000
      0.000000E+0000
      0.000000E+0000
</DataArray>
<DataArray Name="P" type="Float64" format="ascii" NumberOfComponents="1">
      0.392910E+0000
      0.387595E+0000
      0.382224E+0000
      0.376799E+0000
      0.371318E+0000
      0.365782E+0000
      0.360189E+0000
      0.354539E+0000
      0.348832E+0000
      0.343067E+0000
      0.392886E+0000
      0.387571E+0000
      0.382201E+0000
      0.376777E+0000
      0.371297E+0000
      0.365762E+0000
      0.360170E+0000
      0.354521E+0000
      0.348815E+0000
      0.343051E+0000
      0.392862E+0000
      0.387548E+0000
      0.382179E+0000
      0.376755E+0000
      0.371276E+0000
      0.365742E+0000
      0.360151E+0000
      0.354503E+0000
      0.348798E+0000
      0.343036E+0000
      0.392839E+0000
      0.387526E+0000
      0.382158E+0000
      0.376735E+0000
      0.371257E+0000
      0.365723E+0000
      0.360133E+0000
      0.354486E+0000
      0.348782E+0000
      0.343020E+0000
      0.392818E+0000
      0.387505E+0000
      0.382137E+0000
      0.376715E+0000
      0.371238E+0000
      0.365705E+0000
      0.360115E+0000
      0.354469E+0000
      0.348766E+0000
      0.343005E+0000
      0.392798E+0000
      0.387485E+0000
      0.382118E+0000
      0.376696E+0000
      0.371220E+0000
      0.365687E+0000
      0.360099E+0000
      0.354453E+0000
      0.348751E+0000
      0.342991E+0000
      0.392779E+0000
      0.387466E+0000
      0.382100E+0000
      0.376679E+0000
      0.371202E+0000
      0.365670E+0000
      0.360083E+0000
      0.354438E+0000
      0.348736E+0000
      0.342977E+0000
      0.392761E+0000
      0.387449E+0000
      0.382082E+0000
      0.376662E+0000
      0.371186E+0000
      0.365654E+0000
      0.360067E+0000
      0.354423E+0000
      0.348722E+0000
      0.342963E+0000
      0.392744E+0000
      0.387432E+0000
      0.382066E+0000
      0.376645E+0000
      0.371170E+0000
      0.365639E+0000
      0.360052E+0000
      0.354409E+0000
      0.348708E+0000
      0.342950E+0000
      0.392728E+0000
      0.387416E+0000
      0.382050E+0000
      0.376630E+0000
      0.371155E+0000
      0.365625E+0000
      0.360038E+0000
      0.354395E+0000
      0.348695E+0000
      0.342937E+0000
</DataArray>
<DataArray Name="RHO" type="Float64" format="ascii" NumberOfComponents="1">
      0.117198E+0001
      0.117199E+0001
      0.117198E+0001
      0.117198E+0001
      0.117198E+0001
      0.117198E+0001
      0.117198E+0001
      0.117198E+0001
      0.117197E+0001
      0.117197E+0001
      0.117198E+0001
      0.117198E+0001
      0.117198E+0001
      0.117198E+0001
      0.117198E+0001
      0.117198E+0001
      0.117197E+0001
      0.117197E+0001
      0.117197E+0001
      0.117197E+0001
      0.117198E+0001
      0.117198E+0001
      0.117198E+0001
      0.117198E+0001
      0.117198E+0001
      0.117197E+0001
      0.117197E+0001
      0.117197E+0001
      0.117197E+0001
      0.117197E+0001
      0.117197E+0001
      0.117197E+0001
      0.117197E+0001
      0.117197E+0001
      0.117197E+0001
      0.117197E+0001
      0.117197E+0001
      0.117197E+0001
      0.117197E+0001
      0.117197E+0001
      0.117197E+0001
      0.117197E+0001
      0.117197E+0001
      0.117197E+0001
      0.117197E+0001
      0.117197E+0001
      0.117197E+0001
      0.117197E+0001
      0.117197E+0001
      0.117197E+0001
      0.117197E+0001
      0.117197E+0001
      0.117197E+0001
      0.117197E+0001
      0.117197E+0001
      0.117197E+0001
      0.117197E+0001
      0.117197E+0001
      0.117197E+0001
      0.117197E+0001
      0.117197E+0001
      0.117197E+0001