<?xml version="1.0"?>
<VTKFile type="StructuredGrid" version="0.1" byte_order="LittleEndian">
<StructuredGrid WholeExtent="         100         110          80          90           0           1">
<Piece Extent="         100         110          80          90           0           1">
<Points>
<DataArray NumberOfComponents="3" type="Float64" format="ascii">
    0.431871E-01    0.305691E-01    0.000000E+00
    0.438723E-01    0.305691E-01    0.000000E+00
    0.445643E-01    0.305691E-01    0.000000E+00
    0.452633E-01    0.305691E-01    0.000000E+00
    0.459692E-01    0.305691E-01    0.000000E+00
    0.466822E-01    0.305691E-01    0.000000E+00
    0.474024E-01    0.305691E-01    0.000000E+00
    0.481297E-01    0.305691E-01    0.000000E+00
    0.488644E-01    0.305691E-01    0.000000E+00
    0.496063E-01    0.305691E-01    0.000000E+00
    0.503557E-01    0.305691E-01    0.000000E+00
    0.431871E-01    0.314969E-01    0.000000E+00
    0.438723E-01    0.314969E-01    0.000000E+00
    0.445643E-01    0.314969E-01    0.000000E+00
    0.452633E-01    0.314969E-01    0.000000E+00
    0.459692E-01    0.314969E-01    0.000000E+00
    0.466822E-01    0.314969E-01    0.000000E+00
    0.474024E-01    0.314969E-01    0.000000E+00
    0.481297E-01    0.314969E-01    0.000000E+00
    0.488644E-01    0.314969E-01    0.000000E+00
    0.496063E-01    0.314969E-01    0.000000E+00
    0.503557E-01    0.314969E-01    0.000000E+00
    0.431871E-01    0.324526E-01    0.000000E+00
    0.438723E-01    0.324526E-01    0.000000E+00
    0.445643E-01    0.324526E-01    0.000000E+00
    0.452633E-01    0.324526E-01    0.000000E+00
    0.459692E-01    0.324526E-01    0.000000E+00
    0.466822E-01    0.324526E-01    0.000000E+00
    0.474024E-01    0.324526E-01    0.000000E+00
    0.481297E-01    0.324526E-01    0.000000E+00
    0.488644E-01    0.324526E-01    0.000000E+00
    0.496063E-01    0.324526E-01    0.000000E+00
    0.503557E-01    0.324526E-01    0.000000E+00
    0.431871E-01    0.334369E-01    0.000000E+00
    0.438723E-01    0.334369E-01    0.000000E+00
    0.445643E-01    0.334369E-01    0.000000E+00
    0.452633E-01    0.334369E-01    0.000000E+00
    0.459692E-01    0.334369E-01    0.000000E+00
    0.466822E-01    0.334369E-01    0.000000E+00
    0.474024E-01    0.334369E-01    0.000000E+00
    0.481297E-01    0.334369E-01    0.000000E+00
    0.488644E-01    0.334369E-01    0.000000E+00
    0.496063E-01    0.334369E-01    0.000000E+00
    0.503557E-01    0.334369E-01    0.000000E+00
    0.431871E-01    0.344508E-01    0.000000E+00
    0.438723E-01    0.344508E-01    0.000000E+00
    0.445643E-01    0.344508E-01    0.000000E+00
    0.452633E-01    0.344508E-01    0.000000E+00
    0.459692E-01    0.344508E-01    0.000000E+00
    0.466822E-01    0.344508E-01    0.000000E+00
    0.474024E-01    0.344508E-01    0.000000E+00
    0.481297E-01    0.344508E-01    0.000000E+00
    0.488644E-01    0.344508E-01    0.000000E+00
    0.496063E-01    0.344508E-01    0.000000E+00
    0.503557E-01    0.344508E-01    0.000000E+00
    0.431871E-01    0.354950E-01    0.000000E+00
    0.438723E-01    0.354950E-01    0.000000E+00
    0.445643E-01    0.354950E-01    0.000000E+00
    0.452633E-01    0.354950E-01    0.000000E+00
    0.459692E-01    0.354950E-01    0.000000E+00
    0.466822E-01    0.354950E-01    0.000000E+00
    0.474024E-01    0.354950E-01    0.000000E+00
    0.481297E-01    0.354950E-01    0.000000E+00
    0.488644E-01    0.354950E-01    0.000000E+00
    0.496063E-01    0.354950E-01    0.000000E+00
    0.503557E-01    0.354950E-01    0.000000E+00
    0.431871E-01    0.365706E-01    0.000000E+00
    0.438723E-01    0.365706E-01    0.000000E+00
    0.445643E-01    0.365706E-01    0.000000E+00
    0.452633E-01    0.365706E-01    0.000000E+00
    0.459692E-01    0.365706E-01    0.000000E+00
    0.466822E-01    0.365706E-01    0.000000E+00
    0.474024E-01    0.365706E-01    0.000000E+00
    0.481297E-01    0.365706E-01    0.000000E+00
    0.488644E-01    0.365706E-01    0.000000E+00
    0.496063E-01    0.365706E-01    0.000000E+00
    0.503557E-01    0.365706E-01    0.000000E+00
    0.431871E-01    0.376785E-01    0.000000E+00
    0.438723E-01    0.376785E-01    0.000000E+00
    0.445643E-01    0.376785E-01    0.000000E+00
    0.452633E-01    0.376785E-01    0.000000E+00
    0.459692E-01    0.376785E-01    0.000000E+00
    0.466822E-01    0.376785E-01    0.000000E+00
    0.474024E-01    0.376785E-01    0.000000E+00
    0.481297E-01    0.376785E-01    0.000000E+00
    0.488644E-01    0.376785E-01    0.000000E+00
    0.496063E-01    0.376785E-01    0.000000E+00
    0.503557E-01    0.376785E-01    0.000000E+00
    0.431871E-01    0.388196E-01    0.000000E+00
    0.438723E-01    0.388196E-01    0.000000E+00
    0.445643E-01    0.388196E-01    0.000000E+00
    0.452633E-01    0.388196E-01    0.000000E+00
    0.459692E-01    0.388196E-01    0.000000E+00
    0.466822E-01    0.388196E-01    0.000000E+00
    0.474024E-01    0.388196E-01    0.000000E+00
    0.481297E-01    0.388196E-01    0.000000E+00
    0.488644E-01    0.388196E-01    0.000000E+00
    0.496063E-01    0.388196E-01    0.000000E+00
    0.503557E-01    0.388196E-01    0.000000E+00
    0.431871E-01    0.399949E-01    0.000000E+00
    0.438723E-01    0.399949E-01    0.000000E+00
    0.445643E-01    0.399949E-01    0.000000E+00
    0.452633E-01    0.399949E-01    0.000000E+00
    0.459692E-01    0.399949E-01    0.000000E+00
    0.466822E-01    0.399949E-01    0.000000E+00
    0.474024E-01    0.399949E-01    0.000000E+00
    0.481297E-01    0.399949E-01    0.000000E+00
    0.488644E-01    0.399949E-01    0.000000E+00
    0.496063E-01    0.399949E-01    0.000000E+00
    0.503557E-01    0.399949E-01    0.000000E+00
    0.431871E-01    0.412055E-01    0.000000E+00
    0.438723E-01    0.412055E-01    0.000000E+00
    0.445643E-01    0.412055E-01    0.000000E+00
    0.452633E-01    0.412055E-01    0.000000E+00
    0.459692E-01    0.412055E-01    0.000000E+00
    0.466822E-01    0.412055E-01    0.000000E+00
    0.474024E-01    0.412055E-01    0.000000E+00
    0.481297E-01    0.412055E-01    0.000000E+00
    0.488644E-01    0.412055E-01    0.000000E+00
    0.496063E-01    0.412055E-01    0.000000E+00
    0.503557E-01    0.412055E-01    0.000000E+00
    0.431871E-01    0.305691E-01    0.160000E-02
    0.438723E-01    0.305691E-01    0.160000E-02
    0.445643E-01    0.305691E-01    0.160000E-02
    0.452633E-01    0.305691E-01    0.160000E-02
    0.459692E-01    0.305691E-01    0.160000E-02
    0.466822E-01    0.305691E-01    0.160000E-02
    0.474024E-01    0.305691E-01    0.160000E-02
    0.481297E-01    0.305691E-01    0.160000E-02
    0.488644E-01    0.305691E-01    0.160000E-02
    0.496063E-01    0.305691E-01    0.160000E-02
    0.503557E-01    0.305691E-01    0.160000E-02
    0.431871E-01    0.314969E-01    0.160000E-02
    0.438723E-01    0.314969E-01    0.160000E-02
    0.445643E-01    0.314969E-01    0.160000E-02
    0.452633E-01    0.314969E-01    0.160000E-02
    0.459692E-01    0.314969E-01    0.160000E-02
    0.466822E-01    0.314969E-01    0.160000E-02
    0.474024E-01    0.314969E-01    0.160000E-02
    0.481297E-01    0.314969E-01    0.160000E-02
    0.488644E-01    0.314969E-01    0.160000E-02
    0.496063E-01    0.314969E-01    0.160000E-02
    0.503557E-01    0.314969E-01    0.160000E-02
    0.431871E-01    0.324526E-01    0.160000E-02
    0.438723E-01    0.324526E-01    0.160000E-02
    0.445643E-01    0.324526E-01    0.160000E-02
    0.452633E-01    0.324526E-01    0.160000E-02
    0.459692E-01    0.324526E-01    0.160000E-02
    0.466822E-01    0.324526E-01    0.160000E-02
    0.474024E-01    0.324526E-01    0.160000E-02
    0.481297E-01    0.324526E-01    0.160000E-02
    0.488644E-01    0.324526E-01    0.160000E-02
    0.496063E-01    0.324526E-01    0.160000E-02
    0.503557E-01    0.324526E-01    0.160000E-02
    0.431871E-01    0.334369E-01    0.160000E-02
    0.438723E-01    0.334369E-01    0.160000E-02
    0.445643E-01    0.334369E-01    0.160000E-02
    0.452633E-01    0.334369E-01    0.160000E-02
    0.459692E-01    0.334369E-01    0.160000E-02
    0.466822E-01    0.334369E-01    0.160000E-02
    0.474024E-01    0.334369E-01    0.160000E-02
    0.481297E-01    0.334369E-01    0.160000E-02
    0.488644E-01    0.334369E-01    0.160000E-02
    0.496063E-01    0.334369E-01    0.160000E-02
    0.503557E-01    0.334369E-01    0.160000E-02
    0.431871E-01    0.344508E-01    0.160000E-02
    0.438723E-01    0.344508E-01    0.160000E-02
    0.445643E-01    0.344508E-01    0.160000E-02
    0.452633E-01    0.344508E-01    0.160000E-02
    0.459692E-01    0.344508E-01    0.160000E-02
    0.466822E-01    0.344508E-01    0.160000E-02
    0.474024E-01    0.344508E-01    0.160000E-02
    0.481297E-01    0.344508E-01    0.160000E-02
    0.488644E-01    0.344508E-01    0.160000E-02
    0.496063E-01    0.344508E-01    0.160000E-02
    0.503557E-01    0.344508E-01    0.160000E-02
    0.431871E-01    0.354950E-01    0.160000E-02
    0.438723E-01    0.354950E-01    0.160000E-02
    0.445643E-01    0.354950E-01    0.160000E-02
    0.452633E-01    0.354950E-01    0.160000E-02
    0.459692E-01    0.354950E-01    0.160000E-02
    0.466822E-01    0.354950E-01    0.160000E-02
    0.474024E-01    0.354950E-01    0.160000E-02
    0.481297E-01    0.354950E-01    0.160000E-02
    0.488644E-01    0.354950E-01    0.160000E-02
    0.496063E-01    0.354950E-01    0.160000E-02
    0.503557E-01    0.354950E-01    0.160000E-02
    0.431871E-01    0.365706E-01    0.160000E-02
    0.438723E-01    0.365706E-01    0.160000E-02
    0.445643E-01    0.365706E-01    0.160000E-02
    0.452633E-01    0.365706E-01    0.160000E-02
    0.459692E-01    0.365706E-01    0.160000E-02
    0.466822E-01    0.365706E-01    0.160000E-02
    0.474024E-01    0.365706E-01    0.160000E-02
    0.481297E-01    0.365706E-01    0.160000E-02
    0.488644E-01    0.365706E-01    0.160000E-02
    0.496063E-01    0.365706E-01    0.160000E-02
    0.503557E-01    0.365706E-01    0.160000E-02
    0.431871E-01    0.376785E-01    0.160000E-02
    0.438723E-01    0.376785E-01    0.160000E-02
    0.445643E-01    0.376785E-01    0.160000E-02
    0.452633E-01    0.376785E-01    0.160000E-02
    0.459692E-01    0.376785E-01    0.160000E-02
    0.466822E-01    0.376785E-01    0.160000E-02
    0.474024E-01    0.376785E-01    0.160000E-02
    0.481297E-01    0.376785E-01    0.160000E-02
    0.488644E-01    0.376785E-01    0.160000E-02
    0.496063E-01    0.376785E-01    0.160000E-02
    0.503557E-01    0.376785E-01    0.160000E-02
    0.431871E-01    0.388196E-01    0.160000E-02
    0.438723E-01    0.388196E-01    0.160000E-02
    0.445643E-01    0.388196E-01    0.160000E-02
    0.452633E-01    0.388196E-01    0.160000E-02
    0.459692E-01    0.388196E-01    0.160000E-02
    0.466822E-01    0.388196E-01    0.160000E-02
    0.474024E-01    0.388196E-01    0.160000E-02
    0.481297E-01    0.388196E-01    0.160000E-02
    0.488644E-01    0.388196E-01    0.160000E-02
    0.496063E-01    0.388196E-01    0.160000E-02
    0.503557E-01    0.388196E-01    0.160000E-02
    0.431871E-01    0.399949E-01    0.160000E-02
    0.438723E-01    0.399949E-01    0.160000E-02
    0.445643E-01    0.399949E-01    0.160000E-02
    0.452633E-01    0.399949E-01    0.160000E-02
    0.459692E-01    0.399949E-01    0.160000E-02
    0.466822E-01    0.399949E-01    0.160000E-02
    0.474024E-01    0.399949E-01    0.160000E-02
    0.481297E-01    0.399949E-01    0.160000E-02
    0.488644E-01    0.399949E-01    0.160000E-02
    0.496063E-01    0.399949E-01    0.160000E-02
    0.503557E-01    0.399949E-01    0.160000E-02
    0.431871E-01    0.412055E-01    0.160000E-02
    0.438723E-01    0.412055E-01    0.160000E-02
    0.445643E-01    0.412055E-01    0.160000E-02
    0.452633E-01    0.412055E-01    0.160000E-02
    0.459692E-01    0.412055E-01    0.160000E-02
    0.466822E-01    0.412055E-01    0.160000E-02
    0.474024E-01    0.412055E-01    0.160000E-02
    0.481297E-01    0.412055E-01    0.160000E-02
    0.488644E-01    0.412055E-01    0.160000E-02
    0.496063E-01    0.412055E-01    0.160000E-02
    0.503557E-01    0.412055E-01    0.160000E-02
</DataArray>
</Points>
<PointData>
<DataArray Name="Velocity" type="Float64" format="ascii" NumberOfComponents="3">
    0.883218E-01   -0.711396E-04    0.000000E+00
    0.883276E-01   -0.647848E-04    0.000000E+00
    0.883331E-01   -0.580951E-04    0.000000E+00
    0.883384E-01   -0.519884E-04    0.000000E+00
    0.883434E-01   -0.464244E-04    0.000000E+00
    0.883481E-01   -0.413644E-04    0.000000E+00
    0.883526E-01   -0.367710E-04    0.000000E+00
    0.883567E-01   -0.326089E-04    0.000000E+00
    0.883607E-01   -0.288443E-04    0.000000E+00
    0.883643E-01   -0.254452E-04    0.000000E+00
    0.883677E-01   -0.223816E-04    0.000000E+00
    0.883299E-01   -0.762503E-04    0.000000E+00
    0.883349E-01   -0.697609E-04    0.000000E+00
    0.883397E-01   -0.628960E-04    0.000000E+00
    0.883443E-01   -0.565960E-04    0.000000E+00
    0.883487E-01   -0.508248E-04    0.000000E+00
    0.883529E-01   -0.455478E-04    0.000000E+00
    0.883568E-01   -0.407312E-04    0.000000E+00
    0.883606E-01   -0.363425E-04    0.000000E+00
    0.883641E-01   -0.323508E-04    0.000000E+00
    0.883673E-01   -0.287263E-04    0.000000E+00
    0.883704E-01   -0.254411E-04    0.000000E+00
    0.883348E-01   -0.806403E-04    0.000000E+00
    0.883392E-01   -0.740738E-04    0.000000E+00
    0.883435E-01   -0.670962E-04    0.000000E+00
    0.883476E-01   -0.606615E-04    0.000000E+00
    0.883515E-01   -0.547383E-04    0.000000E+00
    0.883552E-01   -0.492956E-04    0.000000E+00
    0.883588E-01   -0.443033E-04    0.000000E+00
    0.883621E-01   -0.397321E-04    0.000000E+00
    0.883653E-01   -0.355538E-04    0.000000E+00
    0.883683E-01   -0.317410E-04    0.000000E+00
    0.883711E-01   -0.282680E-04    0.000000E+00
    0.883414E-01   -0.840914E-04    0.000000E+00
    0.883450E-01   -0.775196E-04    0.000000E+00
    0.883486E-01   -0.705077E-04    0.000000E+00
    0.883521E-01   -0.640125E-04    0.000000E+00
    0.883554E-01   -0.580069E-04    0.000000E+00
    0.883586E-01   -0.524638E-04    0.000000E+00
    0.883617E-01   -0.473567E-04    0.000000E+00
    0.883646E-01   -0.426594E-04    0.000000E+00
    0.883674E-01   -0.383466E-04    0.000000E+00
    0.883701E-01   -0.343936E-04    0.000000E+00
    0.883726E-01   -0.307767E-04    0.000000E+00
    0.883498E-01   -0.864506E-04    0.000000E+00
    0.883527E-01   -0.799484E-04    0.000000E+00
    0.883555E-01   -0.729844E-04    0.000000E+00
    0.883583E-01   -0.665071E-04    0.000000E+00
    0.883610E-01   -0.604935E-04    0.000000E+00
    0.883636E-01   -0.549203E-04    0.000000E+00
    0.883662E-01   -0.497645E-04    0.000000E+00
    0.883686E-01   -0.450030E-04    0.000000E+00
    0.883709E-01   -0.406136E-04    0.000000E+00
    0.883731E-01   -0.365740E-04    0.000000E+00
    0.883752E-01   -0.328629E-04    0.000000E+00
    0.883598E-01   -0.876251E-04    0.000000E+00
    0.883619E-01   -0.812642E-04    0.000000E+00
    0.883639E-01   -0.744277E-04    0.000000E+00
    0.883660E-01   -0.680450E-04    0.000000E+00
    0.883680E-01   -0.620969E-04    0.000000E+00
    0.883700E-01   -0.565638E-04    0.000000E+00
    0.883719E-01   -0.514260E-04    0.000000E+00
    0.883738E-01   -0.466635E-04    0.000000E+00
    0.883756E-01   -0.422569E-04    0.000000E+00
    0.883774E-01   -0.381865E-04    0.000000E+00
    0.883791E-01   -0.344336E-04    0.000000E+00
    0.883709E-01   -0.875729E-04    0.000000E+00
    0.883721E-01   -0.814190E-04    0.000000E+00
    0.883734E-01   -0.747836E-04    0.000000E+00
    0.883747E-01   -0.685675E-04    0.000000E+00
    0.883760E-01   -0.627546E-04    0.000000E+00
    0.883774E-01   -0.573289E-04    0.000000E+00
    0.883787E-01   -0.522735E-04    0.000000E+00
    0.883800E-01   -0.475717E-04    0.000000E+00
    0.883813E-01   -0.432066E-04    0.000000E+00
    0.883825E-01   -0.391612E-04    0.000000E+00
    0.883838E-01   -0.354188E-04    0.000000E+00
    0.883826E-01   -0.862880E-04    0.000000E+00
    0.883830E-01   -0.803997E-04    0.000000E+00
    0.883836E-01   -0.740322E-04    0.000000E+00
    0.883842E-01   -0.680482E-04    0.000000E+00
    0.883848E-01   -0.624350E-04    0.000000E+00
    0.883855E-01   -0.571792E-04    0.000000E+00
    0.883862E-01   -0.522672E-04    0.000000E+00
    0.883869E-01   -0.476847E-04    0.000000E+00
    0.883877E-01   -0.434175E-04    0.000000E+00
    0.883884E-01   -0.394509E-04    0.000000E+00
    0.883891E-01   -0.357706E-04    0.000000E+00
    0.883948E-01   -0.837839E-04    0.000000E+00
    0.883945E-01   -0.782125E-04    0.000000E+00
    0.883943E-01   -0.721717E-04    0.000000E+00
    0.883942E-01   -0.664786E-04    0.000000E+00
    0.883942E-01   -0.611233E-04    0.000000E+00
    0.883943E-01   -0.560950E-04    0.000000E+00
    0.883944E-01   -0.513825E-04    0.000000E+00
    0.883945E-01   -0.469742E-04    0.000000E+00
    0.883947E-01   -0.428580E-04    0.000000E+00
    0.883949E-01   -0.390217E-04    0.000000E+00
    0.883952E-01   -0.354528E-04    0.000000E+00
    0.884078E-01   -0.800724E-04    0.000000E+00
    0.884068E-01   -0.748619E-04    0.000000E+00
    0.884059E-01   -0.691991E-04    0.000000E+00
    0.884051E-01   -0.638490E-04    0.000000E+00
    0.884044E-01   -0.588038E-04    0.000000E+00
    0.884038E-01   -0.540551E-04    0.000000E+00
    0.884033E-01   -0.495939E-04    0.000000E+00
    0.884028E-01   -0.454106E-04    0.000000E+00
    0.884025E-01   -0.414953E-04    0.000000E+00
    0.884022E-01   -0.378377E-04    0.000000E+00
    0.884019E-01   -0.344274E-04    0.000000E+00
    0.884218E-01   -0.751297E-04    0.000000E+00
    0.884200E-01   -0.703187E-04    0.000000E+00
    0.884183E-01   -0.650800E-04    0.000000E+00
    0.884168E-01   -0.601200E-04    0.000000E+00
    0.884154E-01   -0.554330E-04    0.000000E+00
    0.884141E-01   -0.510124E-04    0.000000E+00
    0.884130E-01   -0.468510E-04    0.000000E+00
    0.884119E-01   -0.429412E-04    0.000000E+00
    0.884110E-01   -0.392748E-04    0.000000E+00
    0.884101E-01   -0.358432E-04    0.000000E+00
    0.884093E-01   -0.326378E-04    0.000000E+00
    0.883198E-01   -0.720987E-04    0.176591E-19
    0.883258E-01   -0.647848E-04    0.158677E-19
    0.883315E-01   -0.580951E-04    0.142292E-19
    0.883369E-01   -0.519884E-04    0.127335E-19
    0.883420E-01   -0.464244E-04    0.113707E-19
    0.883468E-01   -0.413644E-04    0.101313E-19
    0.883514E-01   -0.367710E-04    0.900631E-20
    0.883557E-01   -0.326089E-04    0.798689E-20
    0.883597E-01   -0.288443E-04    0.706482E-20
    0.883634E-01   -0.254452E-04    0.623227E-20
    0.883669E-01   -0.223816E-04    0.548190E-20
    0.883299E-01   -0.772269E-04    0.189151E-19
    0.883349E-01   -0.697609E-04    0.170865E-19
    0.883397E-01   -0.628960E-04    0.154051E-19
    0.883443E-01   -0.565960E-04    0.138620E-19
    0.883487E-01   -0.508248E-04    0.124485E-19
    0.883529E-01   -0.455478E-04    0.111560E-19
    0.883568E-01   -0.407312E-04    0.997626E-20
    0.883606E-01   -0.363425E-04    0.890135E-20
    0.883641E-01   -0.323508E-04    0.792367E-20
    0.883673E-01   -0.287263E-04    0.703591E-20
    0.883704E-01   -0.254411E-04    0.623126E-20
    0.883348E-01   -0.816259E-04    0.199926E-19
    0.883392E-01   -0.740738E-04    0.181428E-19
    0.883435E-01   -0.670962E-04    0.164338E-19
    0.883476E-01   -0.606615E-04    0.148578E-19
    0.883515E-01   -0.547383E-04    0.134070E-19
    0.883552E-01   -0.492956E-04    0.120739E-19
    0.883588E-01   -0.443033E-04    0.108512E-19
    0.883621E-01   -0.397321E-04    0.973156E-20
    0.883653E-01   -0.355538E-04    0.870817E-20
    0.883683E-01   -0.317410E-04    0.777431E-20
    0.883711E-01   -0.282680E-04    0.692365E-20
    0.883414E-01   -0.850754E-04    0.208375E-19
    0.883450E-01   -0.775196E-04    0.189868E-19
    0.883486E-01   -0.705077E-04    0.172694E-19
    0.883521E-01   -0.640125E-04    0.156786E-19
    0.883554E-01   -0.580069E-04    0.142076E-19
    0.883586E-01   -0.524638E-04    0.128499E-19
    0.883617E-01   -0.473567E-04    0.115990E-19
    0.883646E-01   -0.426594E-04    0.104485E-19
    0.883674E-01   -0.383466E-04    0.939222E-20
    0.883701E-01   -0.343936E-04    0.842400E-20
    0.883726E-01   -0.307767E-04    0.753812E-20
    0.883498E-01   -0.874220E-04    0.214122E-19
    0.883527E-01   -0.799484E-04    0.195817E-19
    0.883555E-01   -0.729844E-04    0.178760E-19
    0.883583E-01   -0.665071E-04    0.162896E-19
    0.883610E-01   -0.604935E-04    0.148166E-19
    0.883636E-01   -0.549203E-04    0.134516E-19
    0.883662E-01   -0.497645E-04    0.121888E-19
    0.883686E-01   -0.450030E-04    0.110226E-19
    0.883709E-01   -0.406136E-04    0.994746E-20
    0.883731E-01   -0.365740E-04    0.895804E-20
    0.883752E-01   -0.328629E-04    0.804909E-20
    0.883598E-01   -0.885734E-04    0.216942E-19
    0.883619E-01   -0.812642E-04    0.199040E-19
    0.883639E-01   -0.744277E-04    0.182295E-19
    0.883660E-01   -0.680450E-04    0.166662E-19
    0.883680E-01   -0.620969E-04    0.152094E-19
    0.883700E-01   -0.565638E-04    0.138541E-19
    0.883719E-01   -0.514260E-04    0.125957E-19
    0.883738E-01   -0.466635E-04    0.114293E-19
    0.883756E-01   -0.422569E-04    0.103499E-19
    0.883774E-01   -0.381865E-04    0.935300E-20
    0.883791E-01   -0.344336E-04    0.843379E-20
    0.883709E-01   -0.884886E-04    0.216734E-19
    0.883721E-01   -0.814190E-04    0.199419E-19
    0.883734E-01   -0.747836E-04    0.183167E-19
    0.883747E-01   -0.685675E-04    0.167942E-19
    0.883760E-01   -0.627546E-04    0.153705E-19
    0.883774E-01   -0.573289E-04    0.140415E-19
    0.883787E-01   -0.522735E-04    0.128033E-19
    0.883800E-01   -0.475717E-04    0.116517E-19
    0.883813E-01   -0.432066E-04    0.105826E-19
    0.883825E-01   -0.391612E-04    0.959172E-20
    0.883838E-01   -0.354188E-04    0.867511E-20
    0.883826E-01   -0.871626E-04    0.213487E-19
    0.883830E-01   -0.803997E-04    0.196923E-19
    0.883836E-01   -0.740322E-04    0.181327E-19
    0.883842E-01   -0.680482E-04    0.166670E-19
    0.883848E-01   -0.624350E-04    0.152922E-19
    0.883855E-01   -0.571792E-04    0.140049E-19
    0.883862E-01   -0.522672E-04    0.128018E-19
    0.883869E-01   -0.476847E-04    0.116794E-19
    0.883877E-01   -0.434175E-04    0.106342E-19
    0.883884E-01   -0.394509E-04    0.966268E-20
    0.883891E-01   -0.357706E-04    0.876128E-20
    0.883948E-01   -0.846102E-04    0.207235E-19
    0.883945E-01   -0.782125E-04    0.191565E-19
    0.883943E-01   -0.721717E-04    0.176770E-19
    0.883942E-01   -0.664786E-04    0.162826E-19
    0.883942E-01   -0.611233E-04    0.149709E-19
    0.883943E-01   -0.560950E-04    0.137393E-19
    0.883944E-01   -0.513825E-04    0.125851E-19
    0.883945E-01   -0.469742E-04    0.115054E-19
    0.883947E-01   -0.428580E-04    0.104972E-19
    0.883949E-01   -0.390217E-04    0.955755E-20
    0.883952E-01   -0.354528E-04    0.868343E-20
    0.884078E-01   -0.808440E-04    0.198011E-19
    0.884068E-01   -0.748619E-04    0.183359E-19
    0.884059E-01   -0.691991E-04    0.169489E-19
    0.884051E-01   -0.638490E-04    0.156385E-19
    0.884044E-01   -0.588038E-04    0.144028E-19
    0.884038E-01   -0.540551E-04    0.132397E-19
    0.884033E-01   -0.495939E-04    0.121470E-19
    0.884028E-01   -0.454106E-04    0.111224E-19
    0.884025E-01   -0.414953E-04    0.101634E-19
    0.884022E-01   -0.378377E-04    0.926757E-20
    0.884019E-01   -0.344274E-04    0.843229E-20
    0.884218E-01   -0.758413E-04    0.185758E-19
    0.884200E-01   -0.703187E-04    0.172231E-19
    0.884183E-01   -0.650800E-04    0.159400E-19
    0.884168E-01   -0.601200E-04    0.147252E-19
    0.884154E-01   -0.554330E-04    0.135772E-19
    0.884141E-01   -0.510124E-04    0.124944E-19
    0.884130E-01   -0.468510E-04    0.114752E-19
    0.884119E-01   -0.429412E-04    0.105176E-19
    0.884110E-01   -0.392748E-04    0.961954E-20
    0.884101E-01   -0.358432E-04    0.877906E-20
    0.884093E-01   -0.326378E-04    0.799396E-20
</DataArray>
</PointData>
<CellData>
<DataArray Name="DP" type="Float64" format="ascii" NumberOfComponents="1">
      0.000000E+0000
      0.000000E+0000
      0.000000E+0000
      0.000000E+0000
      0.000000E+0000
      0.000000E+0000
      0.000000E+0000
      0.000000E+0000
      0.000000E+0000
      0.000000E+0000
      0.000000E+0000
      0.000000E+0000
      0.000000E+0000
      0.000000E+0000
      0.000000E+0000
      0.000000E+0000
      0.000000E+0000
      0.000000E+0000
      0.000000E+0000
      0.000000E+0000
      0.000000E+0000
      0.000000E+0000
      0.000000E+0000
      0.000000E+0000
      0.000000E+0000
      0.000000E+0000
      0.000000E+0000
      0.000000E+0000
      0.000000E+0000
      0.000000E+0000
      0.000000E+0000
      0.000000E+0000
      0.000000E+0000
      0.000000E+0000
      0.000000E+0000
      0.000000E+0000
      0.000000E+0000
      0.000000E+0000
      0.000000E+0000
      0.000000E+0000
      0.000000E+0000
      0.000000E+0000
      0.000000E+0000
      0.000000E+0000
      0.000000E+0000
      0.000000E+0000
      0.000000E+0000
      0.000000E+0000
      0.000000E+0000
      0.000000E+0000
      0.000000E+0000
      0.000000E+0000
      0.000000E+0000
      0.000000E+0000
      0.000000E+0000
      0.000000E+0000
      0.000000E+0000
      0.000000E+0000
      0.000000E+0000
      0.000000E+0000
      0.000000E+0000
      0.000000E+0000
      0.000000E+0000
      0.000000E+0000
      0.000000E+0000
      0.000000E+0000
      0.000000E+0000
      0.000000E+0000
      0.000000E+0000
      0.000000E+0000
      0.000000E+0000
      0.000000E+0000
      0.000000E+0000
      0.000000E+0000
      0.000000E+0000
      0.000000E+0000
      0.000000E+0000
      0.000000E+0000
      0.000000E+0000
      0.000000E+0000
      0.000000E+0000
      0.000000E+0000
      0.000000E+0000
      0.000000E+0000
      0.000000E+0000
      0.000000E+0000
      0.000000E+0000
      0.000000E+0000
      0.000000E+0000
      0.000000E+0000
      0.000000E+0000
      0.000000E+0000
      0.000000E+0000
      0.000000E+0000
      0.000000E+0000
      0.000000E+0000
      0.000000E+0000
      0.000000E+0000
      0.000000E+0000
      0.000000E+0000
</DataArray>
<DataArray Name="P" type="Float64" format="ascii" NumberOfComponents="1">
      0.132733E+0000
      0.124820E+0000
      0.116827E+0000
      0.108755E+0000
      0.100601E+0000
      0.923657E-0001
      0.840480E-0001
      0.756470E-0001
      0.671618E-0001
      0.585916E-0001
      0.132729E+0000
      0.124816E+0000
      0.116823E+0000
      0.108751E+0000
      0.100597E+0000
      0.923618E-0001
      0.840441E-0001
      0.756431E-0001
      0.671580E-0001
      0.585878E-0001
      0.132726E+0000
      0.124812E+0000
      0.116820E+0000
      0.108747E+0000
      0.100593E+0000
      0.923581E-0001
      0.840404E-0001
      0.756394E-0001
      0.671543E-0001
      0.585842E-0001
      0.132722E+0000
      0.124809E+0000
      0.116816E+0000
      0.108743E+0000
      0.100590E+0000
      0.923545E-0001
      0.840368E-0001
      0.756358E-0001
      0.671507E-0001
      0.585807E-0001
      0.132719E+0000
      0.124805E+0000
      0.116813E+0000
      0.108740E+0000
      0.100586E+0000
      0.923510E-0001
      0.840333E-0001
      0.756324E-0001
      0.671473E-0001
      0.585773E-0001
      0.132715E+0000
      0.124802E+0000
      0.116809E+0000
      0.108737E+0000
      0.100583E+0000
      0.923477E-0001
      0.840301E-0001
      0.756291E-0001
      0.671440E-0001
      0.585740E-0001
      0.132712E+0000
      0.124799E+0000
      0.116806E+0000
      0.108733E+0000
      0.100580E+0000
      0.923446E-0001
      0.840270E-0001
      0.756260E-0001
      0.671409E-0001
      0.585709E-0001
      0.132710E+0000
      0.124796E+0000
      0.116803E+0000
      0.108731E+0000
      0.100577E+0000
      0.923417E-0001
      0.840240E-0001
      0.756231E-0001
      0.671380E-0001
      0.585680E-0001
      0.132707E+0000
      0.124793E+0000
      0.116801E+0000
      0.108728E+0000
      0.100574E+0000
      0.923390E-0001
      0.840213E-0001
      0.756203E-0001
      0.671353E-0001
      0.585652E-0001
      0.132705E+0000
      0.124791E+0000
      0.116798E+0000
      0.108725E+0000
      0.100572E+0000
      0.923365E-0001
      0.840188E-0001
      0.756178E-0001
      0.671327E-0001
      0.585627E-0001
</DataArray>
<DataArray Name="RHO" type="Float64" format="ascii" NumberOfComponents="1">
      0.117197E+0001
      0.117197E+0001
      0.117197E+0001
      0.117197E+0001
      0.117197E+0001
      0.117197E+0001
      0.117197E+0001
      0.117197E+0001
      0.117197E+0001
      0.117197E+0001
      0.117197E+0001
      0.117197E+0001
      0.117197E+0001
      0.117197E+0001
      0.117197E+0001
      0.117197E+0001
      0.117197E+0001
      0.117197E+0001
      0.117197E+0001
      0.117197E+0001
      0.117197E+0001
      0.117197E+0001
      0.117197E+0001
      0.117197E+0001
      0.117197E+0001
      0.117197E+0001
      0.117197E+0001
      0.117197E+0001
      0.117197E+0001
      0.117197E+0001
      0.117197E+0001
      0.117197E+0001
      0.117197E+0001
      0.117197E+0001
      0.117197E+0001
      0.117197E+0001
      0.117197E+0001
      0.117197E+0001
      0.117197E+0001
      0.117197E+0001
      0.117197E+0001
      0.117197E+0001
      0.117197E+0001
      0.117197E+0001
      0.117197E+0001
      0.117197E+0001
      0.117197E+0001
      0.117197E+0001
      0.117197E+0001
      0.117197E+0001
      0.117197E+0001
      0.117197E+0001
      0.117197E+0001
      0.117197E+0001
      0.117197E+0001
      0.117197E+0001
      0.117197E+0001
      0.117197E+0001
      0.117197E+0001
      0.117197E+0001
      0.117197E+0001
      0.117197E+0001