<?xml version="1.0"?>
<VTKFile type="StructuredGrid" version="0.1" byte_order="LittleEndian">
<StructuredGrid WholeExtent="         160         170          30          40           0           1">
<Piece Extent="         160         170          30          40           0           1">
<Points>
<DataArray NumberOfComponents="3" type="Float64" format="ascii">
    0.991467E-01    0.669651E-02    0.000000E+00
    0.100391E+00    0.669651E-02    0.000000E+00
    0.101649E+00    0.669651E-02    0.000000E+00
    0.102919E+00    0.669651E-02    0.000000E+00
    0.104201E+00    0.669651E-02    0.000000E+00
    0.105496E+00    0.669651E-02    0.000000E+00
    0.106805E+00    0.669651E-02    0.000000E+00
    0.108126E+00    0.669651E-02    0.000000E+00
    0.109461E+00    0.669651E-02    0.000000E+00
    0.110809E+00    0.669651E-02    0.000000E+00
    0.112170E+00    0.669651E-02    0.000000E+00
    0.991467E-01    0.690815E-02    0.000000E+00
    0.100391E+00    0.690815E-02    0.000000E+00
    0.101649E+00    0.690815E-02    0.000000E+00
    0.102919E+00    0.690815E-02    0.000000E+00
    0.104201E+00    0.690815E-02    0.000000E+00
    0.105496E+00    0.690815E-02    0.000000E+00
    0.106805E+00    0.690815E-02    0.000000E+00
    0.108126E+00    0.690815E-02    0.000000E+00
    0.109461E+00    0.690815E-02    0.000000E+00
    0.110809E+00    0.690815E-02    0.000000E+00
    0.112170E+00    0.690815E-02    0.000000E+00
    0.991467E-01    0.712614E-02    0.000000E+00
    0.100391E+00    0.712614E-02    0.000000E+00
    0.101649E+00    0.712614E-02    0.000000E+00
    0.102919E+00    0.712614E-02    0.000000E+00
    0.104201E+00    0.712614E-02    0.000000E+00
    0.105496E+00    0.712614E-02    0.000000E+00
    0.106805E+00    0.712614E-02    0.000000E+00
    0.108126E+00    0.712614E-02    0.000000E+00
    0.109461E+00    0.712614E-02    0.000000E+00
    0.110809E+00    0.712614E-02    0.000000E+00
    0.112170E+00    0.712614E-02    0.000000E+00
    0.991467E-01    0.735067E-02    0.000000E+00
    0.100391E+00    0.735067E-02    0.000000E+00
    0.101649E+00    0.735067E-02    0.000000E+00
    0.102919E+00    0.735067E-02    0.000000E+00
    0.104201E+00    0.735067E-02    0.000000E+00
    0.105496E+00    0.735067E-02    0.000000E+00
    0.106805E+00    0.735067E-02    0.000000E+00
    0.108126E+00    0.735067E-02    0.000000E+00
    0.109461E+00    0.735067E-02    0.000000E+00
    0.110809E+00    0.735067E-02    0.000000E+00
    0.112170E+00    0.735067E-02    0.000000E+00
    0.991467E-01    0.758194E-02    0.000000E+00
    0.100391E+00    0.758194E-02    0.000000E+00
    0.101649E+00    0.758194E-02    0.000000E+00
    0.102919E+00    0.758194E-02    0.000000E+00
    0.104201E+00    0.758194E-02    0.000000E+00
    0.105496E+00    0.758194E-02    0.000000E+00
    0.106805E+00    0.758194E-02    0.000000E+00
    0.108126E+00    0.758194E-02    0.000000E+00
    0.109461E+00    0.758194E-02    0.000000E+00
    0.110809E+00    0.758194E-02    0.000000E+00
    0.112170E+00    0.758194E-02    0.000000E+00
    0.991467E-01    0.782015E-02    0.000000E+00
    0.100391E+00    0.782015E-02    0.000000E+00
    0.101649E+00    0.782015E-02    0.000000E+00
    0.102919E+00    0.782015E-02    0.000000E+00
    0.104201E+00    0.782015E-02    0.000000E+00
    0.105496E+00    0.782015E-02    0.000000E+00
    0.106805E+00    0.782015E-02    0.000000E+00
    0.108126E+00    0.782015E-02    0.000000E+00
    0.109461E+00    0.782015E-02    0.000000E+00
    0.110809E+00    0.782015E-02    0.000000E+00
    0.112170E+00    0.782015E-02    0.000000E+00
    0.991467E-01    0.806550E-02    0.000000E+00
    0.100391E+00    0.806550E-02    0.000000E+00
    0.101649E+00    0.806550E-02    0.000000E+00
    0.102919E+00    0.806550E-02    0.000000E+00
    0.104201E+00    0.806550E-02    0.000000E+00
    0.105496E+00    0.806550E-02    0.000000E+00
    0.106805E+00    0.806550E-02    0.000000E+00
    0.108126E+00    0.806550E-02    0.000000E+00
    0.109461E+00    0.806550E-02    0.000000E+00
    0.110809E+00    0.806550E-02    0.000000E+00
    0.112170E+00    0.806550E-02    0.000000E+00
    0.991467E-01    0.831821E-02    0.000000E+00
    0.100391E+00    0.831821E-02    0.000000E+00
    0.101649E+00    0.831821E-02    0.000000E+00
    0.102919E+00    0.831821E-02    0.000000E+00
    0.104201E+00    0.831821E-02    0.000000E+00
    0.105496E+00    0.831821E-02    0.000000E+00
    0.106805E+00    0.831821E-02    0.000000E+00
    0.108126E+00    0.831821E-02    0.000000E+00
    0.109461E+00    0.831821E-02    0.000000E+00
    0.110809E+00    0.831821E-02    0.000000E+00
    0.112170E+00    0.831821E-02    0.000000E+00
    0.991467E-01    0.857851E-02    0.000000E+00
    0.100391E+00    0.857851E-02    0.000000E+00
    0.101649E+00    0.857851E-02    0.000000E+00
    0.102919E+00    0.857851E-02    0.000000E+00
    0.104201E+00    0.857851E-02    0.000000E+00
    0.105496E+00    0.857851E-02    0.000000E+00
    0.106805E+00    0.857851E-02    0.000000E+00
    0.108126E+00    0.857851E-02    0.000000E+00
    0.109461E+00    0.857851E-02    0.000000E+00
    0.110809E+00    0.857851E-02    0.000000E+00
    0.112170E+00    0.857851E-02    0.000000E+00
    0.991467E-01    0.884661E-02    0.000000E+00
    0.100391E+00    0.884661E-02    0.000000E+00
    0.101649E+00    0.884661E-02    0.000000E+00
    0.102919E+00    0.884661E-02    0.000000E+00
    0.104201E+00    0.884661E-02    0.000000E+00
    0.105496E+00    0.884661E-02    0.000000E+00
    0.106805E+00    0.884661E-02    0.000000E+00
    0.108126E+00    0.884661E-02    0.000000E+00
    0.109461E+00    0.884661E-02    0.000000E+00
    0.110809E+00    0.884661E-02    0.000000E+00
    0.112170E+00    0.884661E-02    0.000000E+00
    0.991467E-01    0.912275E-02    0.000000E+00
    0.100391E+00    0.912275E-02    0.000000E+00
    0.101649E+00    0.912275E-02    0.000000E+00
    0.102919E+00    0.912275E-02    0.000000E+00
    0.104201E+00    0.912275E-02    0.000000E+00
    0.105496E+00    0.912275E-02    0.000000E+00
    0.106805E+00    0.912275E-02    0.000000E+00
    0.108126E+00    0.912275E-02    0.000000E+00
    0.109461E+00    0.912275E-02    0.000000E+00
    0.110809E+00    0.912275E-02    0.000000E+00
    0.112170E+00    0.912275E-02    0.000000E+00
    0.991467E-01    0.669651E-02    0.160000E-02
    0.100391E+00    0.669651E-02    0.160000E-02
    0.101649E+00    0.669651E-02    0.160000E-02
    0.102919E+00    0.669651E-02    0.160000E-02
    0.104201E+00    0.669651E-02    0.160000E-02
    0.105496E+00    0.669651E-02    0.160000E-02
    0.106805E+00    0.669651E-02    0.160000E-02
    0.108126E+00    0.669651E-02    0.160000E-02
    0.109461E+00    0.669651E-02    0.160000E-02
    0.110809E+00    0.669651E-02    0.160000E-02
    0.112170E+00    0.669651E-02    0.160000E-02
    0.991467E-01    0.690815E-02    0.160000E-02
    0.100391E+00    0.690815E-02    0.160000E-02
    0.101649E+00    0.690815E-02    0.160000E-02
    0.102919E+00    0.690815E-02    0.160000E-02
    0.104201E+00    0.690815E-02    0.160000E-02
    0.105496E+00    0.690815E-02    0.160000E-02
    0.106805E+00    0.690815E-02    0.160000E-02
    0.108126E+00    0.690815E-02    0.160000E-02
    0.109461E+00    0.690815E-02    0.160000E-02
    0.110809E+00    0.690815E-02    0.160000E-02
    0.112170E+00    0.690815E-02    0.160000E-02
    0.991467E-01    0.712614E-02    0.160000E-02
    0.100391E+00    0.712614E-02    0.160000E-02
    0.101649E+00    0.712614E-02    0.160000E-02
    0.102919E+00    0.712614E-02    0.160000E-02
    0.104201E+00    0.712614E-02    0.160000E-02
    0.105496E+00    0.712614E-02    0.160000E-02
    0.106805E+00    0.712614E-02    0.160000E-02
    0.108126E+00    0.712614E-02    0.160000E-02
    0.109461E+00    0.712614E-02    0.160000E-02
    0.110809E+00    0.712614E-02    0.160000E-02
    0.112170E+00    0.712614E-02    0.160000E-02
    0.991467E-01    0.735067E-02    0.160000E-02
    0.100391E+00    0.735067E-02    0.160000E-02
    0.101649E+00    0.735067E-02    0.160000E-02
    0.102919E+00    0.735067E-02    0.160000E-02
    0.104201E+00    0.735067E-02    0.160000E-02
    0.105496E+00    0.735067E-02    0.160000E-02
    0.106805E+00    0.735067E-02    0.160000E-02
    0.108126E+00    0.735067E-02    0.160000E-02
    0.109461E+00    0.735067E-02    0.160000E-02
    0.110809E+00    0.735067E-02    0.160000E-02
    0.112170E+00    0.735067E-02    0.160000E-02
    0.991467E-01    0.758194E-02    0.160000E-02
    0.100391E+00    0.758194E-02    0.160000E-02
    0.101649E+00    0.758194E-02    0.160000E-02
    0.102919E+00    0.758194E-02    0.160000E-02
    0.104201E+00    0.758194E-02    0.160000E-02
    0.105496E+00    0.758194E-02    0.160000E-02
    0.106805E+00    0.758194E-02    0.160000E-02
    0.108126E+00    0.758194E-02    0.160000E-02
    0.109461E+00    0.758194E-02    0.160000E-02
    0.110809E+00    0.758194E-02    0.160000E-02
    0.112170E+00    0.758194E-02    0.160000E-02
    0.991467E-01    0.782015E-02    0.160000E-02
    0.100391E+00    0.782015E-02    0.160000E-02
    0.101649E+00    0.782015E-02    0.160000E-02
    0.102919E+00    0.782015E-02    0.160000E-02
    0.104201E+00    0.782015E-02    0.160000E-02
    0.105496E+00    0.782015E-02    0.160000E-02
    0.106805E+00    0.782015E-02    0.160000E-02
    0.108126E+00    0.782015E-02    0.160000E-02
    0.109461E+00    0.782015E-02    0.160000E-02
    0.110809E+00    0.782015E-02    0.160000E-02
    0.112170E+00    0.782015E-02    0.160000E-02
    0.991467E-01    0.806550E-02    0.160000E-02
    0.100391E+00    0.806550E-02    0.160000E-02
    0.101649E+00    0.806550E-02    0.160000E-02
    0.102919E+00    0.806550E-02    0.160000E-02
    0.104201E+00    0.806550E-02    0.160000E-02
    0.105496E+00    0.806550E-02    0.160000E-02
    0.106805E+00    0.806550E-02    0.160000E-02
    0.108126E+00    0.806550E-02    0.160000E-02
    0.109461E+00    0.806550E-02    0.160000E-02
    0.110809E+00    0.806550E-02    0.160000E-02
    0.112170E+00    0.806550E-02    0.160000E-02
    0.991467E-01    0.831821E-02    0.160000E-02
    0.100391E+00    0.831821E-02    0.160000E-02
    0.101649E+00    0.831821E-02    0.160000E-02
    0.102919E+00    0.831821E-02    0.160000E-02
    0.104201E+00    0.831821E-02    0.160000E-02
    0.105496E+00    0.831821E-02    0.160000E-02
    0.106805E+00    0.831821E-02    0.160000E-02
    0.108126E+00    0.831821E-02    0.160000E-02
    0.109461E+00    0.831821E-02    0.160000E-02
    0.110809E+00    0.831821E-02    0.160000E-02
    0.112170E+00    0.831821E-02    0.160000E-02
    0.991467E-01    0.857851E-02    0.160000E-02
    0.100391E+00    0.857851E-02    0.160000E-02
    0.101649E+00    0.857851E-02    0.160000E-02
    0.102919E+00    0.857851E-02    0.160000E-02
    0.104201E+00    0.857851E-02    0.160000E-02
    0.105496E+00    0.857851E-02    0.160000E-02
    0.106805E+00    0.857851E-02    0.160000E-02
    0.108126E+00    0.857851E-02    0.160000E-02
    0.109461E+00    0.857851E-02    0.160000E-02
    0.110809E+00    0.857851E-02    0.160000E-02
    0.112170E+00    0.857851E-02    0.160000E-02
    0.991467E-01    0.884661E-02    0.160000E-02
    0.100391E+00    0.884661E-02    0.160000E-02
    0.101649E+00    0.884661E-02    0.160000E-02
    0.102919E+00    0.884661E-02    0.160000E-02
    0.104201E+00    0.884661E-02    0.160000E-02
    0.105496E+00    0.884661E-02    0.160000E-02
    0.106805E+00    0.884661E-02    0.160000E-02
    0.108126E+00    0.884661E-02    0.160000E-02
    0.109461E+00    0.884661E-02    0.160000E-02
    0.110809E+00    0.884661E-02    0.160000E-02
    0.112170E+00    0.884661E-02    0.160000E-02
    0.991467E-01    0.912275E-02    0.160000E-02
    0.100391E+00    0.912275E-02    0.160000E-02
    0.101649E+00    0.912275E-02    0.160000E-02
    0.102919E+00    0.912275E-02    0.160000E-02
    0.104201E+00    0.912275E-02    0.160000E-02
    0.105496E+00    0.912275E-02    0.160000E-02
    0.106805E+00    0.912275E-02    0.160000E-02
    0.108126E+00    0.912275E-02    0.160000E-02
    0.109461E+00    0.912275E-02    0.160000E-02
    0.110809E+00    0.912275E-02    0.160000E-02
    0.112170E+00    0.912275E-02    0.160000E-02
</DataArray>
</Points>
<PointData>
<DataArray Name="Velocity" type="Float64" format="ascii" NumberOfComponents="3">
    0.884057E-01   -0.126418E-05    0.000000E+00
    0.884061E-01   -0.117365E-05    0.000000E+00
    0.884065E-01   -0.107325E-05    0.000000E+00
    0.884068E-01   -0.980928E-06    0.000000E+00
    0.884072E-01   -0.893186E-06    0.000000E+00
    0.884075E-01   -0.812792E-06    0.000000E+00
    0.884078E-01   -0.739846E-06    0.000000E+00
    0.884081E-01   -0.673597E-06    0.000000E+00
    0.884083E-01   -0.611012E-06    0.000000E+00
    0.884085E-01   -0.550031E-06    0.000000E+00
    0.884087E-01   -0.492685E-06    0.000000E+00
    0.884057E-01   -0.130175E-05    0.000000E+00
    0.884061E-01   -0.121083E-05    0.000000E+00
    0.884065E-01   -0.111073E-05    0.000000E+00
    0.884069E-01   -0.101348E-05    0.000000E+00
    0.884072E-01   -0.921036E-06    0.000000E+00
    0.884075E-01   -0.836350E-06    0.000000E+00
    0.884078E-01   -0.761165E-06    0.000000E+00
    0.884081E-01   -0.693554E-06    0.000000E+00
    0.884083E-01   -0.629084E-06    0.000000E+00
    0.884085E-01   -0.564592E-06    0.000000E+00
    0.884087E-01   -0.501781E-06    0.000000E+00
    0.884057E-01   -0.133869E-05    0.000000E+00
    0.884061E-01   -0.124431E-05    0.000000E+00
    0.884065E-01   -0.114102E-05    0.000000E+00
    0.884069E-01   -0.104146E-05    0.000000E+00
    0.884072E-01   -0.947191E-06    0.000000E+00
    0.884075E-01   -0.860683E-06    0.000000E+00
    0.884078E-01   -0.783292E-06    0.000000E+00
    0.884081E-01   -0.713214E-06    0.000000E+00
    0.884083E-01   -0.646607E-06    0.000000E+00
    0.884085E-01   -0.580907E-06    0.000000E+00
    0.884087E-01   -0.517787E-06    0.000000E+00
    0.884057E-01   -0.137669E-05    0.000000E+00
    0.884061E-01   -0.127886E-05    0.000000E+00
    0.884065E-01   -0.117232E-05    0.000000E+00
    0.884069E-01   -0.107030E-05    0.000000E+00
    0.884072E-01   -0.974046E-06    0.000000E+00
    0.884075E-01   -0.885598E-06    0.000000E+00
    0.884078E-01   -0.805980E-06    0.000000E+00
    0.884081E-01   -0.733467E-06    0.000000E+00
    0.884083E-01   -0.664727E-06    0.000000E+00
    0.884085E-01   -0.597727E-06    0.000000E+00
    0.884087E-01   -0.534102E-06    0.000000E+00
    0.884057E-01   -0.141570E-05    0.000000E+00
    0.884061E-01   -0.131442E-05    0.000000E+00
    0.884065E-01   -0.120458E-05    0.000000E+00
    0.884069E-01   -0.109998E-05    0.000000E+00
    0.884072E-01   -0.100159E-05    0.000000E+00
    0.884075E-01   -0.911087E-06    0.000000E+00
    0.884078E-01   -0.829211E-06    0.000000E+00
    0.884081E-01   -0.754296E-06    0.000000E+00
    0.884083E-01   -0.683429E-06    0.000000E+00
    0.884085E-01   -0.615035E-06    0.000000E+00
    0.884088E-01   -0.550745E-06    0.000000E+00
    0.884057E-01   -0.145569E-05    0.000000E+00
    0.884062E-01   -0.135095E-05    0.000000E+00
    0.884066E-01   -0.123775E-05    0.000000E+00
    0.884069E-01   -0.113045E-05    0.000000E+00
    0.884072E-01   -0.102978E-05    0.000000E+00
    0.884076E-01   -0.937133E-06    0.000000E+00
    0.884078E-01   -0.852977E-06    0.000000E+00
    0.884081E-01   -0.775683E-06    0.000000E+00
    0.884083E-01   -0.702684E-06    0.000000E+00
    0.884086E-01   -0.632809E-06    0.000000E+00
    0.884088E-01   -0.567703E-06    0.000000E+00
    0.884058E-01   -0.149661E-05    0.000000E+00
    0.884062E-01   -0.138839E-05    0.000000E+00
    0.884066E-01   -0.127178E-05    0.000000E+00
    0.884069E-01   -0.116167E-05    0.000000E+00
    0.884073E-01   -0.105860E-05    0.000000E+00
    0.884076E-01   -0.963719E-06    0.000000E+00
    0.884079E-01   -0.877263E-06    0.000000E+00
    0.884081E-01   -0.797609E-06    0.000000E+00
    0.884084E-01   -0.722462E-06    0.000000E+00
    0.884086E-01   -0.651015E-06    0.000000E+00
    0.884088E-01   -0.584959E-06    0.000000E+00
    0.884058E-01   -0.153839E-05    0.000000E+00
    0.884062E-01   -0.142668E-05    0.000000E+00
    0.884066E-01   -0.130663E-05    0.000000E+00
    0.884070E-01   -0.119361E-05    0.000000E+00
    0.884073E-01   -0.108802E-05    0.000000E+00
    0.884076E-01   -0.990821E-06    0.000000E+00
    0.884079E-01   -0.902059E-06    0.000000E+00
    0.884081E-01   -0.820054E-06    0.000000E+00
    0.884084E-01   -0.742728E-06    0.000000E+00
    0.884086E-01   -0.669616E-06    0.000000E+00
    0.884088E-01   -0.602495E-06    0.000000E+00
    0.884058E-01   -0.158097E-05    0.000000E+00
    0.884062E-01   -0.146577E-05    0.000000E+00
    0.884066E-01   -0.134225E-05    0.000000E+00
    0.884070E-01   -0.122623E-05    0.000000E+00
    0.884073E-01   -0.111799E-05    0.000000E+00
    0.884076E-01   -0.101841E-05    0.000000E+00
    0.884079E-01   -0.927342E-06    0.000000E+00
    0.884082E-01   -0.842996E-06    0.000000E+00
    0.884084E-01   -0.763444E-06    0.000000E+00
    0.884086E-01   -0.688569E-06    0.000000E+00
    0.884088E-01   -0.620281E-06    0.000000E+00
    0.884059E-01   -0.162428E-05    0.000000E+00
    0.884063E-01   -0.150557E-05    0.000000E+00
    0.884067E-01   -0.137857E-05    0.000000E+00
    0.884070E-01   -0.125948E-05    0.000000E+00
    0.884073E-01   -0.114848E-05    0.000000E+00
    0.884076E-01   -0.104644E-05    0.000000E+00
    0.884079E-01   -0.953058E-06    0.000000E+00
    0.884082E-01   -0.866396E-06    0.000000E+00
    0.884084E-01   -0.784594E-06    0.000000E+00
    0.884086E-01   -0.707849E-06    0.000000E+00
    0.884088E-01   -0.638292E-06    0.000000E+00
    0.884059E-01   -0.166950E-05    0.000000E+00
    0.884063E-01   -0.154683E-05    0.000000E+00
    0.884067E-01   -0.141614E-05    0.000000E+00
    0.884070E-01   -0.129404E-05    0.000000E+00
    0.884074E-01   -0.118048E-05    0.000000E+00
    0.884077E-01   -0.107506E-05    0.000000E+00
    0.884079E-01   -0.977768E-06    0.000000E+00
    0.884082E-01   -0.888268E-06    0.000000E+00
    0.884084E-01   -0.805705E-06    0.000000E+00
    0.884086E-01   -0.729461E-06    0.000000E+00
    0.884088E-01   -0.658595E-06    0.000000E+00
    0.884057E-01   -0.127661E-05    0.312680E-21
    0.884061E-01   -0.117365E-05    0.287461E-21
    0.884065E-01   -0.107325E-05    0.262870E-21
    0.884068E-01   -0.980928E-06    0.240258E-21
    0.884072E-01   -0.893186E-06    0.218767E-21
    0.884075E-01   -0.812792E-06    0.199077E-21
    0.884078E-01   -0.739846E-06    0.181210E-21
    0.884081E-01   -0.673597E-06    0.164984E-21
    0.884083E-01   -0.611012E-06    0.149655E-21
    0.884085E-01   -0.550031E-06    0.134719E-21
    0.884087E-01   -0.492685E-06    0.120673E-21
    0.884057E-01   -0.131527E-05    0.322147E-21
    0.884061E-01   -0.121083E-05    0.296567E-21
    0.884065E-01   -0.111073E-05    0.272051E-21
    0.884069E-01   -0.101348E-05    0.248232E-21
    0.884072E-01   -0.921036E-06    0.225589E-21
    0.884075E-01   -0.836350E-06    0.204847E-21
    0.884078E-01   -0.761165E-06    0.186432E-21
    0.884081E-01   -0.693554E-06    0.169872E-21
    0.884083E-01   -0.629084E-06    0.154081E-21
    0.884085E-01   -0.564592E-06    0.138285E-21
    0.884087E-01   -0.501781E-06    0.122901E-21
    0.884057E-01   -0.135275E-05    0.331327E-21
    0.884061E-01   -0.124431E-05    0.304769E-21
    0.884065E-01   -0.114102E-05    0.279470E-21
    0.884069E-01   -0.104146E-05    0.255085E-21
    0.884072E-01   -0.947191E-06    0.231995E-21
    0.884075E-01   -0.860683E-06    0.210807E-21
    0.884078E-01   -0.783292E-06    0.191851E-21
    0.884081E-01   -0.713214E-06    0.174687E-21
    0.884083E-01   -0.646607E-06    0.158373E-21
    0.884085E-01   -0.580907E-06    0.142281E-21
    0.884087E-01   -0.517787E-06    0.126821E-21
    0.884057E-01   -0.139128E-05    0.340765E-21
    0.884061E-01   -0.127886E-05    0.313230E-21
    0.884065E-01   -0.117232E-05    0.287135E-21
    0.884069E-01   -0.107030E-05    0.262149E-21
    0.884072E-01   -0.974046E-06    0.238572E-21
    0.884075E-01   -0.885598E-06    0.216909E-21
    0.884078E-01   -0.805980E-06    0.197408E-21
    0.884081E-01   -0.733467E-06    0.179648E-21
    0.884083E-01   -0.664727E-06    0.162811E-21
    0.884085E-01   -0.597727E-06    0.146401E-21
    0.884087E-01   -0.534102E-06    0.130817E-21
    0.884057E-01   -0.143083E-05    0.350452E-21
    0.884061E-01   -0.131442E-05    0.321940E-21
    0.884065E-01   -0.120458E-05    0.295036E-21
    0.884069E-01   -0.109998E-05    0.269417E-21
    0.884072E-01   -0.100159E-05    0.245318E-21
    0.884075E-01   -0.911087E-06    0.223152E-21
    0.884078E-01   -0.829211E-06    0.203098E-21
    0.884081E-01   -0.754296E-06    0.184749E-21
    0.884083E-01   -0.683429E-06    0.167392E-21
    0.884085E-01   -0.615035E-06    0.150640E-21
    0.884088E-01   -0.550745E-06    0.134894E-21
    0.884057E-01   -0.147136E-05    0.360378E-21
    0.884062E-01   -0.135095E-05    0.330886E-21
    0.884066E-01   -0.123775E-05    0.303160E-21
    0.884069E-01   -0.113045E-05    0.276880E-21
    0.884072E-01   -0.102978E-05    0.252224E-21
    0.884076E-01   -0.937133E-06    0.229531E-21
    0.884078E-01   -0.852977E-06    0.208919E-21
    0.884081E-01   -0.775683E-06    0.189988E-21
    0.884083E-01   -0.702684E-06    0.172108E-21
    0.884086E-01   -0.632809E-06    0.154994E-21
    0.884088E-01   -0.567703E-06    0.139047E-21
    0.884058E-01   -0.151281E-05    0.370531E-21
    0.884062E-01   -0.138839E-05    0.340056E-21
    0.884066E-01   -0.127178E-05    0.311496E-21
    0.884069E-01   -0.116167E-05    0.284528E-21
    0.884073E-01   -0.105860E-05    0.259283E-21
    0.884076E-01   -0.963719E-06    0.236043E-21
    0.884079E-01   -0.877263E-06    0.214868E-21
    0.884081E-01   -0.797609E-06    0.195358E-21
    0.884084E-01   -0.722462E-06    0.176952E-21
    0.884086E-01   -0.651015E-06    0.159453E-21
    0.884088E-01   -0.584959E-06    0.143274E-21
    0.884058E-01   -0.155513E-05    0.380897E-21
    0.884062E-01   -0.142668E-05    0.349436E-21
    0.884066E-01   -0.130663E-05    0.320033E-21
    0.884070E-01   -0.119361E-05    0.292351E-21
    0.884073E-01   -0.108802E-05    0.266488E-21
    0.884076E-01   -0.990821E-06    0.242681E-21
    0.884079E-01   -0.902059E-06    0.220941E-21
    0.884081E-01   -0.820054E-06    0.200855E-21
    0.884084E-01   -0.742728E-06    0.181916E-21
    0.884086E-01   -0.669616E-06    0.164009E-21
    0.884088E-01   -0.602495E-06    0.147569E-21
    0.884058E-01   -0.159826E-05    0.391460E-21
    0.884062E-01   -0.146577E-05    0.359010E-21
    0.884066E-01   -0.134225E-05    0.328757E-21
    0.884070E-01   -0.122623E-05    0.300341E-21
    0.884073E-01   -0.111799E-05    0.273828E-21
    0.884076E-01   -0.101841E-05    0.249438E-21
    0.884079E-01   -0.927342E-06    0.227133E-21
    0.884082E-01   -0.842996E-06    0.206474E-21
    0.884084E-01   -0.763444E-06    0.186990E-21
    0.884086E-01   -0.688569E-06    0.168651E-21
    0.884088E-01   -0.620281E-06    0.151925E-21
    0.884059E-01   -0.164211E-05    0.402200E-21
    0.884063E-01   -0.150557E-05    0.368759E-21
    0.884067E-01   -0.137857E-05    0.337651E-21
    0.884070E-01   -0.125948E-05    0.308483E-21
    0.884073E-01   -0.114848E-05    0.281297E-21
    0.884076E-01   -0.104644E-05    0.256303E-21
    0.884079E-01   -0.953058E-06    0.233432E-21
    0.884082E-01   -0.866396E-06    0.212206E-21
    0.884084E-01   -0.784594E-06    0.192170E-21
    0.884086E-01   -0.707849E-06    0.173373E-21
    0.884088E-01   -0.638292E-06    0.156336E-21
    0.884059E-01   -0.168802E-05    0.413445E-21
    0.884063E-01   -0.154683E-05    0.378865E-21
    0.884067E-01   -0.141614E-05    0.346853E-21
    0.884070E-01   -0.129404E-05    0.316948E-21
    0.884074E-01   -0.118048E-05    0.289134E-21
    0.884077E-01   -0.107506E-05    0.263314E-21
    0.884079E-01   -0.977768E-06    0.239484E-21
    0.884082E-01   -0.888268E-06    0.217563E-21
    0.884084E-01   -0.805705E-06    0.197341E-21
    0.884086E-01   -0.729461E-06    0.178666E-21
    0.884088E-01   -0.658595E-06    0.161309E-21
</DataArray>
</PointData>
<CellData>
<DataArray Name="DP" type="Float64" format="ascii" NumberOfComponents="1">
      0.000000E+0000
      0.000000E+0000
      0.000000E+0000
      0.000000E+0000
      0.000000E+0000
      0.000000E+0000
      0.000000E+0000
      0.000000E+0000
      0.000000E+0000
      0.000000E+0000
      0.000000E+0000
      0.000000E+0000
      0.000000E+0000
      0.000000E+0000
      0.000000E+0000
      0.000000E+0000
      0.000000E+0000
      0.000000E+0000
      0.000000E+0000
      0.000000E+0000
      0.000000E+0000
      0.000000E+0000
      0.000000E+0000
      0.000000E+0000
      0.000000E+0000
      0.000000E+0000
      0.000000E+0000
      0.000000E+0000
      0.000000E+0000
      0.000000E+0000
      0.000000E+0000
      0.000000E+0000
      0.000000E+0000
      0.000000E+0000
      0.000000E+0000
      0.000000E+0000
      0.000000E+0000
      0.000000E+0000
      0.000000E+0000
      0.000000E+0000
      0.000000E+0000
      0.000000E+0000
      0.000000E+0000
      0.000000E+0000
      0.000000E+0000
      0.000000E+0000
      0.000000E+0000
      0.000000E+0000
      0.000000E+0000
      0.000000E+0000
      0.000000E+0000
      0.000000E+0000
      0.000000E+0000
      0.000000E+0000
      0.000000E+0000
      0.000000E+0000
      0.000000E+0000
      0.000000E+0000
      0.000000E+0000
      0.000000E+0000
      0.000000E+0000
      0.000000E+0000
      0.000000E+0000
      0.000000E+0000
      0.000000E+0000
      0.000000E+0000
      0.000000E+0000
      0.000000E+0000
      0.000000E+0000
      0.000000E+0000
      0.000000E+0000
      0.000000E+0000
      0.000000E+0000
      0.000000E+0000
      0.000000E+0000
      0.000000E+0000
      0.000000E+0000
      0.000000E+0000
      0.000000E+0000
      0.000000E+0000
      0.000000E+0000
      0.000000E+0000
      0.000000E+0000
      0.000000E+0000
      0.000000E+0000
      0.000000E+0000
      0.000000E+0000
      0.000000E+0000
      0.000000E+0000
      0.000000E+0000
      0.000000E+0000
      0.000000E+0000
      0.000000E+0000
      0.000000E+0000
      0.000000E+0000
      0.000000E+0000
      0.000000E+0000
      0.000000E+0000
      0.000000E+0000
      0.000000E+0000
</DataArray>
<DataArray Name="P" type="Float64" format="ascii" NumberOfComponents="1">
     -0.513939E+0000
     -0.528322E+0000
     -0.542848E+0000
     -0.557518E+0000
     -0.572335E+0000
     -0.587299E+0000
     -0.602414E+0000
     -0.617679E+0000
     -0.633097E+0000
     -0.648668E+0000
     -0.513939E+0000
     -0.528322E+0000
     -0.542848E+0000
     -0.557518E+0000
     -0.572335E+0000
     -0.587299E+0000
     -0.602414E+0000
     -0.617679E+0000
     -0.633097E+0000
     -0.648668E+0000
     -0.513938E+0000
     -0.528321E+0000
     -0.542847E+0000
     -0.557518E+0000
     -0.572334E+0000
     -0.587299E+0000
     -0.602414E+0000
     -0.617679E+0000
     -0.633097E+0000
     -0.648668E+0000
     -0.513938E+0000
     -0.528321E+0000
     -0.542847E+0000
     -0.557517E+0000
     -0.572334E+0000
     -0.587299E+0000
     -0.602413E+0000
     -0.617679E+0000
     -0.633097E+0000
     -0.648669E+0000
     -0.513938E+0000
     -0.528321E+0000
     -0.542847E+0000
     -0.557517E+0000
     -0.572334E+0000
     -0.587299E+0000
     -0.602413E+0000
     -0.617679E+0000
     -0.633097E+0000
     -0.648669E+0000
     -0.513938E+0000
     -0.528320E+0000
     -0.542846E+0000
     -0.557517E+0000
     -0.572334E+0000
     -0.587299E+0000
     -0.602413E+0000
     -0.617679E+0000
     -0.633097E+0000
     -0.648669E+0000
     -0.513938E+0000
     -0.528320E+0000
     -0.542846E+0000
     -0.557517E+0000
     -0.572333E+0000
     -0.587298E+0000
     -0.602413E+0000
     -0.617679E+0000
     -0.633097E+0000
     -0.648669E+0000
     -0.513937E+0000
     -0.528320E+0000
     -0.542846E+0000
     -0.557516E+0000
     -0.572333E+0000
     -0.587298E+0000
     -0.602413E+0000
     -0.617679E+0000
     -0.633097E+0000
     -0.648669E+0000
     -0.513937E+0000
     -0.528320E+0000
     -0.542845E+0000
     -0.557516E+0000
     -0.572333E+0000
     -0.587298E+0000
     -0.602413E+0000
     -0.617679E+0000
     -0.633097E+0000
     -0.648669E+0000
     -0.513937E+0000
     -0.528319E+0000
     -0.542845E+0000
     -0.557516E+0000
     -0.572333E+0000
     -0.587298E+0000
     -0.602413E+0000
     -0.617679E+0000
     -0.633097E+0000
     -0.648669E+0000
</DataArray>
<DataArray Name="RHO" type="Float64" format="ascii" NumberOfComponents="1">
      0.117197E+0001
      0.117197E+0001
      0.117197E+0001
      0.117197E+0001
      0.117197E+0001
      0.117197E+0001
      0.117197E+0001
      0.117197E+0001
      0.117197E+0001
      0.117197E+0001
      0.117197E+0001
      0.117197E+0001
      0.117197E+0001
      0.117197E+0001
      0.117197E+0001
      0.117197E+0001
      0.117197E+0001
      0.117197E+0001
      0.117197E+0001
      0.117197E+0001
      0.117197E+0001
      0.117197E+0001
      0.117197E+0001
      0.117197E+0001
      0.117197E+0001
      0.117197E+0001
      0.117197E+0001
      0.117197E+0001
      0.117197E+0001
      0.117197E+0001
      0.117197E+0001
      0.117197E+0001
      0.117197E+0001
      0.117197E+0001
      0.117197E+0001
      0.117197E+0001
      0.117197E+0001
      0.117197E+0001
      0.117197E+0001
      0.117197E+0001
      0.117197E+0001
      0.117197E+0001
      0.117197E+0001
      0.117197E+0001
      0.117197E+0001
      0.117197E+0001
      0.117197E+0001
      0.117197E+0001
      0.117197E+0001
      0.117197E+0001
      0.117197E+0001
      0.117197E+0001
      0.117197E+0001
      0.117197E+0001
      0.117197E+0001
      0.117197E+0001
      0.117197E+0001
      0.117197E+0001
      0.117197E+0001
      0.117197E+0001
      0.117197E+0001
      0.117197E+0001