<?xml version="1.0"?>
<VTKFile type="StructuredGrid" version="0.1" byte_order="LittleEndian">
<StructuredGrid WholeExtent="         120         130          80          90           0           1">
<Piece Extent="         120         130          80          90           0           1">
<Points>
<DataArray NumberOfComponents="3" type="Float64" format="ascii">
    0.582744E-01    0.305691E-01    0.000000E+00
    0.591104E-01    0.305691E-01    0.000000E+00
    0.599549E-01    0.305691E-01    0.000000E+00
    0.608077E-01    0.305691E-01    0.000000E+00
    0.616691E-01    0.305691E-01    0.000000E+00
    0.625391E-01    0.305691E-01    0.000000E+00
    0.634179E-01    0.305691E-01    0.000000E+00
    0.643054E-01    0.305691E-01    0.000000E+00
    0.652017E-01    0.305691E-01    0.000000E+00
    0.661071E-01    0.305691E-01    0.000000E+00
    0.670215E-01    0.305691E-01    0.000000E+00
    0.582744E-01    0.314969E-01    0.000000E+00
    0.591104E-01    0.314969E-01    0.000000E+00
    0.599549E-01    0.314969E-01    0.000000E+00
    0.608077E-01    0.314969E-01    0.000000E+00
    0.616691E-01    0.314969E-01    0.000000E+00
    0.625391E-01    0.314969E-01    0.000000E+00
    0.634179E-01    0.314969E-01    0.000000E+00
    0.643054E-01    0.314969E-01    0.000000E+00
    0.652017E-01    0.314969E-01    0.000000E+00
    0.661071E-01    0.314969E-01    0.000000E+00
    0.670215E-01    0.314969E-01    0.000000E+00
    0.582744E-01    0.324526E-01    0.000000E+00
    0.591104E-01    0.324526E-01    0.000000E+00
    0.599549E-01    0.324526E-01    0.000000E+00
    0.608077E-01    0.324526E-01    0.000000E+00
    0.616691E-01    0.324526E-01    0.000000E+00
    0.625391E-01    0.324526E-01    0.000000E+00
    0.634179E-01    0.324526E-01    0.000000E+00
    0.643054E-01    0.324526E-01    0.000000E+00
    0.652017E-01    0.324526E-01    0.000000E+00
    0.661071E-01    0.324526E-01    0.000000E+00
    0.670215E-01    0.324526E-01    0.000000E+00
    0.582744E-01    0.334369E-01    0.000000E+00
    0.591104E-01    0.334369E-01    0.000000E+00
    0.599549E-01    0.334369E-01    0.000000E+00
    0.608077E-01    0.334369E-01    0.000000E+00
    0.616691E-01    0.334369E-01    0.000000E+00
    0.625391E-01    0.334369E-01    0.000000E+00
    0.634179E-01    0.334369E-01    0.000000E+00
    0.643054E-01    0.334369E-01    0.000000E+00
    0.652017E-01    0.334369E-01    0.000000E+00
    0.661071E-01    0.334369E-01    0.000000E+00
    0.670215E-01    0.334369E-01    0.000000E+00
    0.582744E-01    0.344508E-01    0.000000E+00
    0.591104E-01    0.344508E-01    0.000000E+00
    0.599549E-01    0.344508E-01    0.000000E+00
    0.608077E-01    0.344508E-01    0.000000E+00
    0.616691E-01    0.344508E-01    0.000000E+00
    0.625391E-01    0.344508E-01    0.000000E+00
    0.634179E-01    0.344508E-01    0.000000E+00
    0.643054E-01    0.344508E-01    0.000000E+00
    0.652017E-01    0.344508E-01    0.000000E+00
    0.661071E-01    0.344508E-01    0.000000E+00
    0.670215E-01    0.344508E-01    0.000000E+00
    0.582744E-01    0.354950E-01    0.000000E+00
    0.591104E-01    0.354950E-01    0.000000E+00
    0.599549E-01    0.354950E-01    0.000000E+00
    0.608077E-01    0.354950E-01    0.000000E+00
    0.616691E-01    0.354950E-01    0.000000E+00
    0.625391E-01    0.354950E-01    0.000000E+00
    0.634179E-01    0.354950E-01    0.000000E+00
    0.643054E-01    0.354950E-01    0.000000E+00
    0.652017E-01    0.354950E-01    0.000000E+00
    0.661071E-01    0.354950E-01    0.000000E+00
    0.670215E-01    0.354950E-01    0.000000E+00
    0.582744E-01    0.365706E-01    0.000000E+00
    0.591104E-01    0.365706E-01    0.000000E+00
    0.599549E-01    0.365706E-01    0.000000E+00
    0.608077E-01    0.365706E-01    0.000000E+00
    0.616691E-01    0.365706E-01    0.000000E+00
    0.625391E-01    0.365706E-01    0.000000E+00
    0.634179E-01    0.365706E-01    0.000000E+00
    0.643054E-01    0.365706E-01    0.000000E+00
    0.652017E-01    0.365706E-01    0.000000E+00
    0.661071E-01    0.365706E-01    0.000000E+00
    0.670215E-01    0.365706E-01    0.000000E+00
    0.582744E-01    0.376785E-01    0.000000E+00
    0.591104E-01    0.376785E-01    0.000000E+00
    0.599549E-01    0.376785E-01    0.000000E+00
    0.608077E-01    0.376785E-01    0.000000E+00
    0.616691E-01    0.376785E-01    0.000000E+00
    0.625391E-01    0.376785E-01    0.000000E+00
    0.634179E-01    0.376785E-01    0.000000E+00
    0.643054E-01    0.376785E-01    0.000000E+00
    0.652017E-01    0.376785E-01    0.000000E+00
    0.661071E-01    0.376785E-01    0.000000E+00
    0.670215E-01    0.376785E-01    0.000000E+00
    0.582744E-01    0.388196E-01    0.000000E+00
    0.591104E-01    0.388196E-01    0.000000E+00
    0.599549E-01    0.388196E-01    0.000000E+00
    0.608077E-01    0.388196E-01    0.000000E+00
    0.616691E-01    0.388196E-01    0.000000E+00
    0.625391E-01    0.388196E-01    0.000000E+00
    0.634179E-01    0.388196E-01    0.000000E+00
    0.643054E-01    0.388196E-01    0.000000E+00
    0.652017E-01    0.388196E-01    0.000000E+00
    0.661071E-01    0.388196E-01    0.000000E+00
    0.670215E-01    0.388196E-01    0.000000E+00
    0.582744E-01    0.399949E-01    0.000000E+00
    0.591104E-01    0.399949E-01    0.000000E+00
    0.599549E-01    0.399949E-01    0.000000E+00
    0.608077E-01    0.399949E-01    0.000000E+00
    0.616691E-01    0.399949E-01    0.000000E+00
    0.625391E-01    0.399949E-01    0.000000E+00
    0.634179E-01    0.399949E-01    0.000000E+00
    0.643054E-01    0.399949E-01    0.000000E+00
    0.652017E-01    0.399949E-01    0.000000E+00
    0.661071E-01    0.399949E-01    0.000000E+00
    0.670215E-01    0.399949E-01    0.000000E+00
    0.582744E-01    0.412055E-01    0.000000E+00
    0.591104E-01    0.412055E-01    0.000000E+00
    0.599549E-01    0.412055E-01    0.000000E+00
    0.608077E-01    0.412055E-01    0.000000E+00
    0.616691E-01    0.412055E-01    0.000000E+00
    0.625391E-01    0.412055E-01    0.000000E+00
    0.634179E-01    0.412055E-01    0.000000E+00
    0.643054E-01    0.412055E-01    0.000000E+00
    0.652017E-01    0.412055E-01    0.000000E+00
    0.661071E-01    0.412055E-01    0.000000E+00
    0.670215E-01    0.412055E-01    0.000000E+00
    0.582744E-01    0.305691E-01    0.160000E-02
    0.591104E-01    0.305691E-01    0.160000E-02
    0.599549E-01    0.305691E-01    0.160000E-02
    0.608077E-01    0.305691E-01    0.160000E-02
    0.616691E-01    0.305691E-01    0.160000E-02
    0.625391E-01    0.305691E-01    0.160000E-02
    0.634179E-01    0.305691E-01    0.160000E-02
    0.643054E-01    0.305691E-01    0.160000E-02
    0.652017E-01    0.305691E-01    0.160000E-02
    0.661071E-01    0.305691E-01    0.160000E-02
    0.670215E-01    0.305691E-01    0.160000E-02
    0.582744E-01    0.314969E-01    0.160000E-02
    0.591104E-01    0.314969E-01    0.160000E-02
    0.599549E-01    0.314969E-01    0.160000E-02
    0.608077E-01    0.314969E-01    0.160000E-02
    0.616691E-01    0.314969E-01    0.160000E-02
    0.625391E-01    0.314969E-01    0.160000E-02
    0.634179E-01    0.314969E-01    0.160000E-02
    0.643054E-01    0.314969E-01    0.160000E-02
    0.652017E-01    0.314969E-01    0.160000E-02
    0.661071E-01    0.314969E-01    0.160000E-02
    0.670215E-01    0.314969E-01    0.160000E-02
    0.582744E-01    0.324526E-01    0.160000E-02
    0.591104E-01    0.324526E-01    0.160000E-02
    0.599549E-01    0.324526E-01    0.160000E-02
    0.608077E-01    0.324526E-01    0.160000E-02
    0.616691E-01    0.324526E-01    0.160000E-02
    0.625391E-01    0.324526E-01    0.160000E-02
    0.634179E-01    0.324526E-01    0.160000E-02
    0.643054E-01    0.324526E-01    0.160000E-02
    0.652017E-01    0.324526E-01    0.160000E-02
    0.661071E-01    0.324526E-01    0.160000E-02
    0.670215E-01    0.324526E-01    0.160000E-02
    0.582744E-01    0.334369E-01    0.160000E-02
    0.591104E-01    0.334369E-01    0.160000E-02
    0.599549E-01    0.334369E-01    0.160000E-02
    0.608077E-01    0.334369E-01    0.160000E-02
    0.616691E-01    0.334369E-01    0.160000E-02
    0.625391E-01    0.334369E-01    0.160000E-02
    0.634179E-01    0.334369E-01    0.160000E-02
    0.643054E-01    0.334369E-01    0.160000E-02
    0.652017E-01    0.334369E-01    0.160000E-02
    0.661071E-01    0.334369E-01    0.160000E-02
    0.670215E-01    0.334369E-01    0.160000E-02
    0.582744E-01    0.344508E-01    0.160000E-02
    0.591104E-01    0.344508E-01    0.160000E-02
    0.599549E-01    0.344508E-01    0.160000E-02
    0.608077E-01    0.344508E-01    0.160000E-02
    0.616691E-01    0.344508E-01    0.160000E-02
    0.625391E-01    0.344508E-01    0.160000E-02
    0.634179E-01    0.344508E-01    0.160000E-02
    0.643054E-01    0.344508E-01    0.160000E-02
    0.652017E-01    0.344508E-01    0.160000E-02
    0.661071E-01    0.344508E-01    0.160000E-02
    0.670215E-01    0.344508E-01    0.160000E-02
    0.582744E-01    0.354950E-01    0.160000E-02
    0.591104E-01    0.354950E-01    0.160000E-02
    0.599549E-01    0.354950E-01    0.160000E-02
    0.608077E-01    0.354950E-01    0.160000E-02
    0.616691E-01    0.354950E-01    0.160000E-02
    0.625391E-01    0.354950E-01    0.160000E-02
    0.634179E-01    0.354950E-01    0.160000E-02
    0.643054E-01    0.354950E-01    0.160000E-02
    0.652017E-01    0.354950E-01    0.160000E-02
    0.661071E-01    0.354950E-01    0.160000E-02
    0.670215E-01    0.354950E-01    0.160000E-02
    0.582744E-01    0.365706E-01    0.160000E-02
    0.591104E-01    0.365706E-01    0.160000E-02
    0.599549E-01    0.365706E-01    0.160000E-02
    0.608077E-01    0.365706E-01    0.160000E-02
    0.616691E-01    0.365706E-01    0.160000E-02
    0.625391E-01    0.365706E-01    0.160000E-02
    0.634179E-01    0.365706E-01    0.160000E-02
    0.643054E-01    0.365706E-01    0.160000E-02
    0.652017E-01    0.365706E-01    0.160000E-02
    0.661071E-01    0.365706E-01    0.160000E-02
    0.670215E-01    0.365706E-01    0.160000E-02
    0.582744E-01    0.376785E-01    0.160000E-02
    0.591104E-01    0.376785E-01    0.160000E-02
    0.599549E-01    0.376785E-01    0.160000E-02
    0.608077E-01    0.376785E-01    0.160000E-02
    0.616691E-01    0.376785E-01    0.160000E-02
    0.625391E-01    0.376785E-01    0.160000E-02
    0.634179E-01    0.376785E-01    0.160000E-02
    0.643054E-01    0.376785E-01    0.160000E-02
    0.652017E-01    0.376785E-01    0.160000E-02
    0.661071E-01    0.376785E-01    0.160000E-02
    0.670215E-01    0.376785E-01    0.160000E-02
    0.582744E-01    0.388196E-01    0.160000E-02
    0.591104E-01    0.388196E-01    0.160000E-02
    0.599549E-01    0.388196E-01    0.160000E-02
    0.608077E-01    0.388196E-01    0.160000E-02
    0.616691E-01    0.388196E-01    0.160000E-02
    0.625391E-01    0.388196E-01    0.160000E-02
    0.634179E-01    0.388196E-01    0.160000E-02
    0.643054E-01    0.388196E-01    0.160000E-02
    0.652017E-01    0.388196E-01    0.160000E-02
    0.661071E-01    0.388196E-01    0.160000E-02
    0.670215E-01    0.388196E-01    0.160000E-02
    0.582744E-01    0.399949E-01    0.160000E-02
    0.591104E-01    0.399949E-01    0.160000E-02
    0.599549E-01    0.399949E-01    0.160000E-02
    0.608077E-01    0.399949E-01    0.160000E-02
    0.616691E-01    0.399949E-01    0.160000E-02
    0.625391E-01    0.399949E-01    0.160000E-02
    0.634179E-01    0.399949E-01    0.160000E-02
    0.643054E-01    0.399949E-01    0.160000E-02
    0.652017E-01    0.399949E-01    0.160000E-02
    0.661071E-01    0.399949E-01    0.160000E-02
    0.670215E-01    0.399949E-01    0.160000E-02
    0.582744E-01    0.412055E-01    0.160000E-02
    0.591104E-01    0.412055E-01    0.160000E-02
    0.599549E-01    0.412055E-01    0.160000E-02
    0.608077E-01    0.412055E-01    0.160000E-02
    0.616691E-01    0.412055E-01    0.160000E-02
    0.625391E-01    0.412055E-01    0.160000E-02
    0.634179E-01    0.412055E-01    0.160000E-02
    0.643054E-01    0.412055E-01    0.160000E-02
    0.652017E-01    0.412055E-01    0.160000E-02
    0.661071E-01    0.412055E-01    0.160000E-02
    0.670215E-01    0.412055E-01    0.160000E-02
</DataArray>
</Points>
<PointData>
<DataArray Name="Velocity" type="Float64" format="ascii" NumberOfComponents="3">
    0.884019E-01   -0.539759E-04    0.000000E+00
    0.884023E-01   -0.512843E-04    0.000000E+00
    0.884027E-01   -0.483413E-04    0.000000E+00
    0.884030E-01   -0.455391E-04    0.000000E+00
    0.884034E-01   -0.428727E-04    0.000000E+00
    0.884038E-01   -0.403372E-04    0.000000E+00
    0.884041E-01   -0.379277E-04    0.000000E+00
    0.884045E-01   -0.356395E-04    0.000000E+00
    0.884048E-01   -0.334680E-04    0.000000E+00
    0.884051E-01   -0.314085E-04    0.000000E+00
    0.884054E-01   -0.294566E-04    0.000000E+00
    0.884047E-01   -0.527011E-04    0.000000E+00
    0.884050E-01   -0.500850E-04    0.000000E+00
    0.884052E-01   -0.472232E-04    0.000000E+00
    0.884054E-01   -0.444970E-04    0.000000E+00
    0.884056E-01   -0.419017E-04    0.000000E+00
    0.884059E-01   -0.394328E-04    0.000000E+00
    0.884061E-01   -0.370856E-04    0.000000E+00
    0.884063E-01   -0.348558E-04    0.000000E+00
    0.884065E-01   -0.327389E-04    0.000000E+00
    0.884068E-01   -0.307305E-04    0.000000E+00
    0.884070E-01   -0.288263E-04    0.000000E+00
    0.884071E-01   -0.513450E-04    0.000000E+00
    0.884072E-01   -0.488082E-04    0.000000E+00
    0.884073E-01   -0.460319E-04    0.000000E+00
    0.884074E-01   -0.433858E-04    0.000000E+00
    0.884075E-01   -0.408656E-04    0.000000E+00
    0.884076E-01   -0.384670E-04    0.000000E+00
    0.884077E-01   -0.361857E-04    0.000000E+00
    0.884079E-01   -0.340175E-04    0.000000E+00
    0.884080E-01   -0.319582E-04    0.000000E+00
    0.884081E-01   -0.300038E-04    0.000000E+00
    0.884082E-01   -0.281501E-04    0.000000E+00
    0.884099E-01   -0.498600E-04    0.000000E+00
    0.884099E-01   -0.474084E-04    0.000000E+00
    0.884098E-01   -0.447240E-04    0.000000E+00
    0.884098E-01   -0.421643E-04    0.000000E+00
    0.884098E-01   -0.397252E-04    0.000000E+00
    0.884098E-01   -0.374027E-04    0.000000E+00
    0.884098E-01   -0.351929E-04    0.000000E+00
    0.884098E-01   -0.330916E-04    0.000000E+00
    0.884098E-01   -0.310951E-04    0.000000E+00
    0.884098E-01   -0.291995E-04    0.000000E+00
    0.884098E-01   -0.274009E-04    0.000000E+00
    0.884132E-01   -0.482115E-04    0.000000E+00
    0.884129E-01   -0.458525E-04    0.000000E+00
    0.884127E-01   -0.432682E-04    0.000000E+00
    0.884125E-01   -0.408028E-04    0.000000E+00
    0.884123E-01   -0.384523E-04    0.000000E+00
    0.884122E-01   -0.362132E-04    0.000000E+00
    0.884120E-01   -0.340817E-04    0.000000E+00
    0.884119E-01   -0.320541E-04    0.000000E+00
    0.884118E-01   -0.301268E-04    0.000000E+00
    0.884117E-01   -0.282961E-04    0.000000E+00
    0.884116E-01   -0.265584E-04    0.000000E+00
    0.884165E-01   -0.463805E-04    0.000000E+00
    0.884161E-01   -0.441222E-04    0.000000E+00
    0.884157E-01   -0.416470E-04    0.000000E+00
    0.884153E-01   -0.392844E-04    0.000000E+00
    0.884150E-01   -0.370310E-04    0.000000E+00
    0.884147E-01   -0.348832E-04    0.000000E+00
    0.884144E-01   -0.328378E-04    0.000000E+00
    0.884141E-01   -0.308912E-04    0.000000E+00
    0.884139E-01   -0.290401E-04    0.000000E+00
    0.884137E-01   -0.272811E-04    0.000000E+00
    0.884134E-01   -0.256109E-04    0.000000E+00
    0.884198E-01   -0.443583E-04    0.000000E+00
    0.884192E-01   -0.422089E-04    0.000000E+00
    0.884187E-01   -0.398521E-04    0.000000E+00
    0.884181E-01   -0.376013E-04    0.000000E+00
    0.884177E-01   -0.354534E-04    0.000000E+00
    0.884172E-01   -0.334054E-04    0.000000E+00
    0.884168E-01   -0.314540E-04    0.000000E+00
    0.884164E-01   -0.295961E-04    0.000000E+00
    0.884160E-01   -0.278286E-04    0.000000E+00
    0.884156E-01   -0.261484E-04    0.000000E+00
    0.884153E-01   -0.245524E-04    0.000000E+00
    0.884231E-01   -0.421412E-04    0.000000E+00
    0.884223E-01   -0.401090E-04    0.000000E+00
    0.884216E-01   -0.378797E-04    0.000000E+00
    0.884209E-01   -0.357496E-04    0.000000E+00
    0.884203E-01   -0.337160E-04    0.000000E+00
    0.884197E-01   -0.317760E-04    0.000000E+00
    0.884191E-01   -0.299267E-04    0.000000E+00
    0.884186E-01   -0.281653E-04    0.000000E+00
    0.884181E-01   -0.264888E-04    0.000000E+00
    0.884176E-01   -0.248946E-04    0.000000E+00
    0.884171E-01   -0.233796E-04    0.000000E+00
    0.884263E-01   -0.397265E-04    0.000000E+00
    0.884254E-01   -0.378199E-04    0.000000E+00
    0.884245E-01   -0.357272E-04    0.000000E+00
    0.884237E-01   -0.337267E-04    0.000000E+00
    0.884229E-01   -0.318159E-04    0.000000E+00
    0.884221E-01   -0.299923E-04    0.000000E+00
    0.884214E-01   -0.282531E-04    0.000000E+00
    0.884208E-01   -0.265960E-04    0.000000E+00
    0.884201E-01   -0.250181E-04    0.000000E+00
    0.884195E-01   -0.235170E-04    0.000000E+00
    0.884190E-01   -0.220901E-04    0.000000E+00
    0.884297E-01   -0.371087E-04    0.000000E+00
    0.884286E-01   -0.353358E-04    0.000000E+00
    0.884275E-01   -0.333889E-04    0.000000E+00
    0.884265E-01   -0.315270E-04    0.000000E+00
    0.884256E-01   -0.297478E-04    0.000000E+00
    0.884247E-01   -0.280490E-04    0.000000E+00
    0.884238E-01   -0.264282E-04    0.000000E+00
    0.884230E-01   -0.248832E-04    0.000000E+00
    0.884222E-01   -0.234116E-04    0.000000E+00
    0.884215E-01   -0.220111E-04    0.000000E+00
    0.884208E-01   -0.206793E-04    0.000000E+00
    0.884333E-01   -0.342700E-04    0.000000E+00
    0.884320E-01   -0.326395E-04    0.000000E+00
    0.884308E-01   -0.308483E-04    0.000000E+00
    0.884296E-01   -0.291346E-04    0.000000E+00
    0.884285E-01   -0.274963E-04    0.000000E+00
    0.884274E-01   -0.259314E-04    0.000000E+00
    0.884264E-01   -0.244378E-04    0.000000E+00
    0.884255E-01   -0.230136E-04    0.000000E+00
    0.884246E-01   -0.216565E-04    0.000000E+00
    0.884237E-01   -0.203645E-04    0.000000E+00
    0.884229E-01   -0.191355E-04    0.000000E+00
    0.884013E-01   -0.543732E-04    0.133176E-19
    0.884017E-01   -0.512843E-04    0.125610E-19
    0.884021E-01   -0.483413E-04    0.118402E-19
    0.884025E-01   -0.455391E-04    0.111539E-19
    0.884029E-01   -0.428727E-04    0.105008E-19
    0.884033E-01   -0.403372E-04    0.987975E-20
    0.884037E-01   -0.379277E-04    0.928960E-20
    0.884041E-01   -0.356395E-04    0.872917E-20
    0.884044E-01   -0.334680E-04    0.819729E-20
    0.884047E-01   -0.314085E-04    0.769286E-20
    0.884051E-01   -0.294566E-04    0.721477E-20
    0.884047E-01   -0.530871E-04    0.130026E-19
    0.884050E-01   -0.500850E-04    0.122673E-19
    0.884052E-01   -0.472232E-04    0.115664E-19
    0.884054E-01   -0.444970E-04    0.108986E-19
    0.884056E-01   -0.419017E-04    0.102630E-19
    0.884059E-01   -0.394328E-04    0.965825E-20
    0.884061E-01   -0.370856E-04    0.908336E-20
    0.884063E-01   -0.348558E-04    0.853721E-20
    0.884065E-01   -0.327389E-04    0.801871E-20
    0.884068E-01   -0.307305E-04    0.752680E-20
    0.884070E-01   -0.288263E-04    0.706041E-20
    0.884071E-01   -0.517192E-04    0.126676E-19
    0.884072E-01   -0.488082E-04    0.119546E-19
    0.884073E-01   -0.460319E-04    0.112746E-19
    0.884074E-01   -0.433858E-04    0.106264E-19
    0.884075E-01   -0.408656E-04    0.100092E-19
    0.884076E-01   -0.384670E-04    0.942169E-20
    0.884077E-01   -0.361857E-04    0.886293E-20
    0.884079E-01   -0.340175E-04    0.833188E-20
    0.884080E-01   -0.319582E-04    0.782751E-20
    0.884081E-01   -0.300038E-04    0.734881E-20
    0.884082E-01   -0.281501E-04    0.689478E-20
    0.884099E-01   -0.502216E-04    0.123007E-19
    0.884099E-01   -0.474084E-04    0.116117E-19
    0.884098E-01   -0.447240E-04    0.109542E-19
    0.884098E-01   -0.421643E-04    0.103273E-19
    0.884098E-01   -0.397252E-04    0.972987E-20
    0.884098E-01   -0.374027E-04    0.916103E-20
    0.884098E-01   -0.351929E-04    0.861976E-20
    0.884098E-01   -0.330916E-04    0.810511E-20
    0.884098E-01   -0.310951E-04    0.761611E-20
    0.884098E-01   -0.291995E-04    0.715182E-20
    0.884098E-01   -0.274009E-04    0.671128E-20
    0.884132E-01   -0.485593E-04    0.118936E-19
    0.884129E-01   -0.458525E-04    0.112306E-19
    0.884127E-01   -0.432682E-04    0.105977E-19
    0.884125E-01   -0.408028E-04    0.999379E-20
    0.884123E-01   -0.384523E-04    0.941810E-20
    0.884122E-01   -0.362132E-04    0.886968E-20
    0.884120E-01   -0.340817E-04    0.834761E-20
    0.884119E-01   -0.320541E-04    0.785099E-20
    0.884118E-01   -0.301268E-04    0.737893E-20
    0.884117E-01   -0.282961E-04    0.693053E-20
    0.884116E-01   -0.265584E-04    0.650493E-20
    0.884165E-01   -0.467133E-04    0.114415E-19
    0.884161E-01   -0.441222E-04    0.108068E-19
    0.884157E-01   -0.416470E-04    0.102006E-19
    0.884153E-01   -0.392844E-04    0.962190E-20
    0.884150E-01   -0.370310E-04    0.906997E-20
    0.884147E-01   -0.348832E-04    0.854393E-20
    0.884144E-01   -0.328378E-04    0.804294E-20
    0.884141E-01   -0.308912E-04    0.756616E-20
    0.884139E-01   -0.290401E-04    0.711277E-20
    0.884137E-01   -0.272811E-04    0.668194E-20
    0.884134E-01   -0.256109E-04    0.627285E-20
    0.884198E-01   -0.446750E-04    0.109422E-19
    0.884192E-01   -0.422089E-04    0.103382E-19
    0.884187E-01   -0.398521E-04    0.976094E-20
    0.884181E-01   -0.376013E-04    0.920966E-20
    0.884177E-01   -0.354534E-04    0.868358E-20
    0.884172E-01   -0.334054E-04    0.818196E-20
    0.884168E-01   -0.314540E-04    0.770400E-20
    0.884164E-01   -0.295961E-04    0.724895E-20
    0.884160E-01   -0.278286E-04    0.681604E-20
    0.884156E-01   -0.261484E-04    0.640451E-20
    0.884153E-01   -0.245524E-04    0.601360E-20
    0.884231E-01   -0.424405E-04    0.103949E-19
    0.884223E-01   -0.401090E-04    0.982388E-20
    0.884216E-01   -0.378797E-04    0.927785E-20
    0.884209E-01   -0.357496E-04    0.875613E-20
    0.884203E-01   -0.337160E-04    0.825804E-20
    0.884197E-01   -0.317760E-04    0.778287E-20
    0.884191E-01   -0.299267E-04    0.732992E-20
    0.884186E-01   -0.281653E-04    0.689850E-20
    0.884181E-01   -0.264888E-04    0.648790E-20
    0.884176E-01   -0.248946E-04    0.609742E-20
    0.884171E-01   -0.233796E-04    0.572636E-20
    0.884263E-01   -0.400073E-04    0.979897E-20
    0.884254E-01   -0.378199E-04    0.926320E-20
    0.884245E-01   -0.357272E-04    0.875063E-20
    0.884237E-01   -0.337267E-04    0.826066E-20
    0.884229E-01   -0.318159E-04    0.779265E-20
    0.884221E-01   -0.299923E-04    0.734599E-20
    0.884214E-01   -0.282531E-04    0.692002E-20
    0.884208E-01   -0.265960E-04    0.651413E-20
    0.884201E-01   -0.250181E-04    0.612768E-20
    0.884195E-01   -0.235170E-04    0.576002E-20
    0.884190E-01   -0.220901E-04    0.541052E-20
    0.884297E-01   -0.373697E-04    0.915295E-20
    0.884286E-01   -0.353358E-04    0.865476E-20
    0.884275E-01   -0.333889E-04    0.817793E-20
    0.884265E-01   -0.315270E-04    0.772189E-20
    0.884256E-01   -0.297478E-04    0.728611E-20
    0.884247E-01   -0.280490E-04    0.687002E-20
    0.884238E-01   -0.264282E-04    0.647305E-20
    0.884230E-01   -0.248832E-04    0.609463E-20
    0.884222E-01   -0.234116E-04    0.573419E-20
    0.884215E-01   -0.220111E-04    0.539116E-20
    0.884208E-01   -0.206793E-04    0.506497E-20
    0.884333E-01   -0.345100E-04    0.845251E-20
    0.884320E-01   -0.326395E-04    0.799436E-20
    0.884308E-01   -0.308483E-04    0.755566E-20
    0.884296E-01   -0.291346E-04    0.713591E-20
    0.884285E-01   -0.274963E-04    0.673464E-20
    0.884274E-01   -0.259314E-04    0.635135E-20
    0.884264E-01   -0.244378E-04    0.598554E-20
    0.884255E-01   -0.230136E-04    0.563669E-20
    0.884246E-01   -0.216565E-04    0.530431E-20
    0.884237E-01   -0.203645E-04    0.498786E-20
    0.884229E-01   -0.191355E-04    0.468685E-20
</DataArray>
</PointData>
<CellData>
<DataArray Name="DP" type="Float64" format="ascii" NumberOfComponents="1">
      0.000000E+0000
      0.000000E+0000
      0.000000E+0000
      0.000000E+0000
      0.000000E+0000
      0.000000E+0000
      0.000000E+0000
      0.000000E+0000
      0.000000E+0000
      0.000000E+0000
      0.000000E+0000
      0.000000E+0000
      0.000000E+0000
      0.000000E+0000
      0.000000E+0000
      0.000000E+0000
      0.000000E+0000
      0.000000E+0000
      0.000000E+0000
      0.000000E+0000
      0.000000E+0000
      0.000000E+0000
      0.000000E+0000
      0.000000E+0000
      0.000000E+0000
      0.000000E+0000
      0.000000E+0000
      0.000000E+0000
      0.000000E+0000
      0.000000E+0000
      0.000000E+0000
      0.000000E+0000
      0.000000E+0000
      0.000000E+0000
      0.000000E+0000
      0.000000E+0000
      0.000000E+0000
      0.000000E+0000
      0.000000E+0000
      0.000000E+0000
      0.000000E+0000
      0.000000E+0000
      0.000000E+0000
      0.000000E+0000
      0.000000E+0000
      0.000000E+0000
      0.000000E+0000
      0.000000E+0000
      0.000000E+0000
      0.000000E+0000
      0.000000E+0000
      0.000000E+0000
      0.000000E+0000
      0.000000E+0000
      0.000000E+0000
      0.000000E+0000
      0.000000E+0000
      0.000000E+0000
      0.000000E+0000
      0.000000E+0000
      0.000000E+0000
      0.000000E+0000
      0.000000E+0000
      0.000000E+0000
      0.000000E+0000
      0.000000E+0000
      0.000000E+0000
      0.000000E+0000
      0.000000E+0000
      0.000000E+0000
      0.000000E+0000
      0.000000E+0000
      0.000000E+0000
      0.000000E+0000
      0.000000E+0000
      0.000000E+0000
      0.000000E+0000
      0.000000E+0000
      0.000000E+0000
      0.000000E+0000
      0.000000E+0000
      0.000000E+0000
      0.000000E+0000
      0.000000E+0000
      0.000000E+0000
      0.000000E+0000
      0.000000E+0000
      0.000000E+0000
      0.000000E+0000
      0.000000E+0000
      0.000000E+0000
      0.000000E+0000
      0.000000E+0000
      0.000000E+0000
      0.000000E+0000
      0.000000E+0000
      0.000000E+0000
      0.000000E+0000
      0.000000E+0000
      0.000000E+0000
</DataArray>
<DataArray Name="P" type="Float64" format="ascii" NumberOfComponents="1">
     -0.416687E-0001
     -0.513295E-0001
     -0.610869E-0001
     -0.709419E-0001
     -0.808954E-0001
     -0.909485E-0001
     -0.101102E+0000
     -0.111357E+0000
     -0.121715E+0000
     -0.132176E+0000
     -0.416690E-0001
     -0.513298E-0001
     -0.610872E-0001
     -0.709422E-0001
     -0.808957E-0001
     -0.909487E-0001
     -0.101102E+0000
     -0.111357E+0000
     -0.121715E+0000
     -0.132176E+0000
     -0.416694E-0001
     -0.513301E-0001
     -0.610875E-0001
     -0.709424E-0001
     -0.808959E-0001
     -0.909489E-0001
     -0.101102E+0000
     -0.111358E+0000
     -0.121715E+0000
     -0.132176E+0000
     -0.416697E-0001
     -0.513304E-0001
     -0.610877E-0001
     -0.709427E-0001
     -0.808961E-0001
     -0.909491E-0001
     -0.101103E+0000
     -0.111358E+0000
     -0.121715E+0000
     -0.132177E+0000
     -0.416700E-0001
     -0.513307E-0001
     -0.610880E-0001
     -0.709429E-0001
     -0.808964E-0001
     -0.909493E-0001
     -0.101103E+0000
     -0.111358E+0000
     -0.121715E+0000
     -0.132177E+0000
     -0.416703E-0001
     -0.513310E-0001
     -0.610883E-0001
     -0.709432E-0001
     -0.808966E-0001
     -0.909495E-0001
     -0.101103E+0000
     -0.111358E+0000
     -0.121716E+0000
     -0.132177E+0000
     -0.416706E-0001
     -0.513313E-0001
     -0.610886E-0001
     -0.709434E-0001
     -0.808968E-0001
     -0.909497E-0001
     -0.101103E+0000
     -0.111358E+0000
     -0.121716E+0000
     -0.132177E+0000
     -0.416709E-0001
     -0.513316E-0001
     -0.610888E-0001
     -0.709437E-0001
     -0.808970E-0001
     -0.909500E-0001
     -0.101103E+0000
     -0.111358E+0000
     -0.121716E+0000
     -0.132177E+0000
     -0.416712E-0001
     -0.513319E-0001
     -0.610891E-0001
     -0.709439E-0001
     -0.808973E-0001
     -0.909502E-0001
     -0.101104E+0000
     -0.111359E+0000
     -0.121716E+0000
     -0.132177E+0000
     -0.416715E-0001
     -0.513321E-0001
     -0.610894E-0001
     -0.709441E-0001
     -0.808975E-0001
     -0.909503E-0001
     -0.101104E+0000
     -0.111359E+0000
     -0.121716E+0000
     -0.132177E+0000
</DataArray>
<DataArray Name="RHO" type="Float64" format="ascii" NumberOfComponents="1">
      0.117197E+0001
      0.117197E+0001
      0.117197E+0001
      0.117197E+0001
      0.117197E+0001
      0.117197E+0001
      0.117197E+0001
      0.117197E+0001
      0.117197E+0001
      0.117197E+0001
      0.117197E+0001
      0.117197E+0001
      0.117197E+0001
      0.117197E+0001
      0.117197E+0001
      0.117197E+0001
      0.117197E+0001
      0.117197E+0001
      0.117197E+0001
      0.117197E+0001
      0.117197E+0001
      0.117197E+0001
      0.117197E+0001
      0.117197E+0001
      0.117197E+0001
      0.117197E+0001
      0.117197E+0001
      0.117197E+0001
      0.117197E+0001
      0.117197E+0001
      0.117197E+0001
      0.117197E+0001
      0.117197E+0001
      0.117197E+0001
      0.117197E+0001
      0.117197E+0001
      0.117197E+0001
      0.117197E+0001
      0.117197E+0001
      0.117197E+0001
      0.117197E+0001
      0.117197E+0001
      0.117197E+0001
      0.117197E+0001
      0.117197E+0001
      0.117197E+0001
      0.117197E+0001
      0.117197E+0001
      0.117197E+0001
      0.117197E+0001
      0.117197E+0001
      0.117197E+0001
      0.117197E+0001
      0.117197E+0001
      0.117197E+0001
      0.117197E+0001
      0.117197E+0001
      0.117197E+0001
      0.117197E+0001
      0.117197E+0001
      0.117197E+0001
      0.117197E+0001