<?xml version="1.0"?>
<VTKFile type="StructuredGrid" version="0.1" byte_order="LittleEndian">
<StructuredGrid WholeExtent="          80          90          20          30           0           1">
<Piece Extent="          80          90          20          30           0           1">
<Points>
<DataArray NumberOfComponents="3" type="Float64" format="ascii">
    0.308223E-01    0.480136E-02    0.000000E+00
    0.313839E-01    0.480136E-02    0.000000E+00
    0.319510E-01    0.480136E-02    0.000000E+00
    0.325239E-01    0.480136E-02    0.000000E+00
    0.331024E-01    0.480136E-02    0.000000E+00
    0.336868E-01    0.480136E-02    0.000000E+00
    0.342770E-01    0.480136E-02    0.000000E+00
    0.348731E-01    0.480136E-02    0.000000E+00
    0.354751E-01    0.480136E-02    0.000000E+00
    0.360832E-01    0.480136E-02    0.000000E+00
    0.366974E-01    0.480136E-02    0.000000E+00
    0.308223E-01    0.499423E-02    0.000000E+00
    0.313839E-01    0.499423E-02    0.000000E+00
    0.319510E-01    0.499423E-02    0.000000E+00
    0.325239E-01    0.499423E-02    0.000000E+00
    0.331024E-01    0.499423E-02    0.000000E+00
    0.336868E-01    0.499423E-02    0.000000E+00
    0.342770E-01    0.499423E-02    0.000000E+00
    0.348731E-01    0.499423E-02    0.000000E+00
    0.354751E-01    0.499423E-02    0.000000E+00
    0.360832E-01    0.499423E-02    0.000000E+00
    0.366974E-01    0.499423E-02    0.000000E+00
    0.308223E-01    0.518324E-02    0.000000E+00
    0.313839E-01    0.518324E-02    0.000000E+00
    0.319510E-01    0.518324E-02    0.000000E+00
    0.325239E-01    0.518324E-02    0.000000E+00
    0.331024E-01    0.518324E-02    0.000000E+00
    0.336868E-01    0.518324E-02    0.000000E+00
    0.342770E-01    0.518324E-02    0.000000E+00
    0.348731E-01    0.518324E-02    0.000000E+00
    0.354751E-01    0.518324E-02    0.000000E+00
    0.360832E-01    0.518324E-02    0.000000E+00
    0.366974E-01    0.518324E-02    0.000000E+00
    0.308223E-01    0.536847E-02    0.000000E+00
    0.313839E-01    0.536847E-02    0.000000E+00
    0.319510E-01    0.536847E-02    0.000000E+00
    0.325239E-01    0.536847E-02    0.000000E+00
    0.331024E-01    0.536847E-02    0.000000E+00
    0.336868E-01    0.536847E-02    0.000000E+00
    0.342770E-01    0.536847E-02    0.000000E+00
    0.348731E-01    0.536847E-02    0.000000E+00
    0.354751E-01    0.536847E-02    0.000000E+00
    0.360832E-01    0.536847E-02    0.000000E+00
    0.366974E-01    0.536847E-02    0.000000E+00
    0.308223E-01    0.555000E-02    0.000000E+00
    0.313839E-01    0.555000E-02    0.000000E+00
    0.319510E-01    0.555000E-02    0.000000E+00
    0.325239E-01    0.555000E-02    0.000000E+00
    0.331024E-01    0.555000E-02    0.000000E+00
    0.336868E-01    0.555000E-02    0.000000E+00
    0.342770E-01    0.555000E-02    0.000000E+00
    0.348731E-01    0.555000E-02    0.000000E+00
    0.354751E-01    0.555000E-02    0.000000E+00
    0.360832E-01    0.555000E-02    0.000000E+00
    0.366974E-01    0.555000E-02    0.000000E+00
    0.308223E-01    0.572725E-02    0.000000E+00
    0.313839E-01    0.572725E-02    0.000000E+00
    0.319510E-01    0.572725E-02    0.000000E+00
    0.325239E-01    0.572725E-02    0.000000E+00
    0.331024E-01    0.572725E-02    0.000000E+00
    0.336868E-01    0.572725E-02    0.000000E+00
    0.342770E-01    0.572725E-02    0.000000E+00
    0.348731E-01    0.572725E-02    0.000000E+00
    0.354751E-01    0.572725E-02    0.000000E+00
    0.360832E-01    0.572725E-02    0.000000E+00
    0.366974E-01    0.572725E-02    0.000000E+00
    0.308223E-01    0.590981E-02    0.000000E+00
    0.313839E-01    0.590981E-02    0.000000E+00
    0.319510E-01    0.590981E-02    0.000000E+00
    0.325239E-01    0.590981E-02    0.000000E+00
    0.331024E-01    0.590981E-02    0.000000E+00
    0.336868E-01    0.590981E-02    0.000000E+00
    0.342770E-01    0.590981E-02    0.000000E+00
    0.348731E-01    0.590981E-02    0.000000E+00
    0.354751E-01    0.590981E-02    0.000000E+00
    0.360832E-01    0.590981E-02    0.000000E+00
    0.366974E-01    0.590981E-02    0.000000E+00
    0.308223E-01    0.609785E-02    0.000000E+00
    0.313839E-01    0.609785E-02    0.000000E+00
    0.319510E-01    0.609785E-02    0.000000E+00
    0.325239E-01    0.609785E-02    0.000000E+00
    0.331024E-01    0.609785E-02    0.000000E+00
    0.336868E-01    0.609785E-02    0.000000E+00
    0.342770E-01    0.609785E-02    0.000000E+00
    0.348731E-01    0.609785E-02    0.000000E+00
    0.354751E-01    0.609785E-02    0.000000E+00
    0.360832E-01    0.609785E-02    0.000000E+00
    0.366974E-01    0.609785E-02    0.000000E+00
    0.308223E-01    0.629154E-02    0.000000E+00
    0.313839E-01    0.629154E-02    0.000000E+00
    0.319510E-01    0.629154E-02    0.000000E+00
    0.325239E-01    0.629154E-02    0.000000E+00
    0.331024E-01    0.629154E-02    0.000000E+00
    0.336868E-01    0.629154E-02    0.000000E+00
    0.342770E-01    0.629154E-02    0.000000E+00
    0.348731E-01    0.629154E-02    0.000000E+00
    0.354751E-01    0.629154E-02    0.000000E+00
    0.360832E-01    0.629154E-02    0.000000E+00
    0.366974E-01    0.629154E-02    0.000000E+00
    0.308223E-01    0.649103E-02    0.000000E+00
    0.313839E-01    0.649103E-02    0.000000E+00
    0.319510E-01    0.649103E-02    0.000000E+00
    0.325239E-01    0.649103E-02    0.000000E+00
    0.331024E-01    0.649103E-02    0.000000E+00
    0.336868E-01    0.649103E-02    0.000000E+00
    0.342770E-01    0.649103E-02    0.000000E+00
    0.348731E-01    0.649103E-02    0.000000E+00
    0.354751E-01    0.649103E-02    0.000000E+00
    0.360832E-01    0.649103E-02    0.000000E+00
    0.366974E-01    0.649103E-02    0.000000E+00
    0.308223E-01    0.669651E-02    0.000000E+00
    0.313839E-01    0.669651E-02    0.000000E+00
    0.319510E-01    0.669651E-02    0.000000E+00
    0.325239E-01    0.669651E-02    0.000000E+00
    0.331024E-01    0.669651E-02    0.000000E+00
    0.336868E-01    0.669651E-02    0.000000E+00
    0.342770E-01    0.669651E-02    0.000000E+00
    0.348731E-01    0.669651E-02    0.000000E+00
    0.354751E-01    0.669651E-02    0.000000E+00
    0.360832E-01    0.669651E-02    0.000000E+00
    0.366974E-01    0.669651E-02    0.000000E+00
    0.308223E-01    0.480136E-02    0.160000E-02
    0.313839E-01    0.480136E-02    0.160000E-02
    0.319510E-01    0.480136E-02    0.160000E-02
    0.325239E-01    0.480136E-02    0.160000E-02
    0.331024E-01    0.480136E-02    0.160000E-02
    0.336868E-01    0.480136E-02    0.160000E-02
    0.342770E-01    0.480136E-02    0.160000E-02
    0.348731E-01    0.480136E-02    0.160000E-02
    0.354751E-01    0.480136E-02    0.160000E-02
    0.360832E-01    0.480136E-02    0.160000E-02
    0.366974E-01    0.480136E-02    0.160000E-02
    0.308223E-01    0.499423E-02    0.160000E-02
    0.313839E-01    0.499423E-02    0.160000E-02
    0.319510E-01    0.499423E-02    0.160000E-02
    0.325239E-01    0.499423E-02    0.160000E-02
    0.331024E-01    0.499423E-02    0.160000E-02
    0.336868E-01    0.499423E-02    0.160000E-02
    0.342770E-01    0.499423E-02    0.160000E-02
    0.348731E-01    0.499423E-02    0.160000E-02
    0.354751E-01    0.499423E-02    0.160000E-02
    0.360832E-01    0.499423E-02    0.160000E-02
    0.366974E-01    0.499423E-02    0.160000E-02
    0.308223E-01    0.518324E-02    0.160000E-02
    0.313839E-01    0.518324E-02    0.160000E-02
    0.319510E-01    0.518324E-02    0.160000E-02
    0.325239E-01    0.518324E-02    0.160000E-02
    0.331024E-01    0.518324E-02    0.160000E-02
    0.336868E-01    0.518324E-02    0.160000E-02
    0.342770E-01    0.518324E-02    0.160000E-02
    0.348731E-01    0.518324E-02    0.160000E-02
    0.354751E-01    0.518324E-02    0.160000E-02
    0.360832E-01    0.518324E-02    0.160000E-02
    0.366974E-01    0.518324E-02    0.160000E-02
    0.308223E-01    0.536847E-02    0.160000E-02
    0.313839E-01    0.536847E-02    0.160000E-02
    0.319510E-01    0.536847E-02    0.160000E-02
    0.325239E-01    0.536847E-02    0.160000E-02
    0.331024E-01    0.536847E-02    0.160000E-02
    0.336868E-01    0.536847E-02    0.160000E-02
    0.342770E-01    0.536847E-02    0.160000E-02
    0.348731E-01    0.536847E-02    0.160000E-02
    0.354751E-01    0.536847E-02    0.160000E-02
    0.360832E-01    0.536847E-02    0.160000E-02
    0.366974E-01    0.536847E-02    0.160000E-02
    0.308223E-01    0.555000E-02    0.160000E-02
    0.313839E-01    0.555000E-02    0.160000E-02
    0.319510E-01    0.555000E-02    0.160000E-02
    0.325239E-01    0.555000E-02    0.160000E-02
    0.331024E-01    0.555000E-02    0.160000E-02
    0.336868E-01    0.555000E-02    0.160000E-02
    0.342770E-01    0.555000E-02    0.160000E-02
    0.348731E-01    0.555000E-02    0.160000E-02
    0.354751E-01    0.555000E-02    0.160000E-02
    0.360832E-01    0.555000E-02    0.160000E-02
    0.366974E-01    0.555000E-02    0.160000E-02
    0.308223E-01    0.572725E-02    0.160000E-02
    0.313839E-01    0.572725E-02    0.160000E-02
    0.319510E-01    0.572725E-02    0.160000E-02
    0.325239E-01    0.572725E-02    0.160000E-02
    0.331024E-01    0.572725E-02    0.160000E-02
    0.336868E-01    0.572725E-02    0.160000E-02
    0.342770E-01    0.572725E-02    0.160000E-02
    0.348731E-01    0.572725E-02    0.160000E-02
    0.354751E-01    0.572725E-02    0.160000E-02
    0.360832E-01    0.572725E-02    0.160000E-02
    0.366974E-01    0.572725E-02    0.160000E-02
    0.308223E-01    0.590981E-02    0.160000E-02
    0.313839E-01    0.590981E-02    0.160000E-02
    0.319510E-01    0.590981E-02    0.160000E-02
    0.325239E-01    0.590981E-02    0.160000E-02
    0.331024E-01    0.590981E-02    0.160000E-02
    0.336868E-01    0.590981E-02    0.160000E-02
    0.342770E-01    0.590981E-02    0.160000E-02
    0.348731E-01    0.590981E-02    0.160000E-02
    0.354751E-01    0.590981E-02    0.160000E-02
    0.360832E-01    0.590981E-02    0.160000E-02
    0.366974E-01    0.590981E-02    0.160000E-02
    0.308223E-01    0.609785E-02    0.160000E-02
    0.313839E-01    0.609785E-02    0.160000E-02
    0.319510E-01    0.609785E-02    0.160000E-02
    0.325239E-01    0.609785E-02    0.160000E-02
    0.331024E-01    0.609785E-02    0.160000E-02
    0.336868E-01    0.609785E-02    0.160000E-02
    0.342770E-01    0.609785E-02    0.160000E-02
    0.348731E-01    0.609785E-02    0.160000E-02
    0.354751E-01    0.609785E-02    0.160000E-02
    0.360832E-01    0.609785E-02    0.160000E-02
    0.366974E-01    0.609785E-02    0.160000E-02
    0.308223E-01    0.629154E-02    0.160000E-02
    0.313839E-01    0.629154E-02    0.160000E-02
    0.319510E-01    0.629154E-02    0.160000E-02
    0.325239E-01    0.629154E-02    0.160000E-02
    0.331024E-01    0.629154E-02    0.160000E-02
    0.336868E-01    0.629154E-02    0.160000E-02
    0.342770E-01    0.629154E-02    0.160000E-02
    0.348731E-01    0.629154E-02    0.160000E-02
    0.354751E-01    0.629154E-02    0.160000E-02
    0.360832E-01    0.629154E-02    0.160000E-02
    0.366974E-01    0.629154E-02    0.160000E-02
    0.308223E-01    0.649103E-02    0.160000E-02
    0.313839E-01    0.649103E-02    0.160000E-02
    0.319510E-01    0.649103E-02    0.160000E-02
    0.325239E-01    0.649103E-02    0.160000E-02
    0.331024E-01    0.649103E-02    0.160000E-02
    0.336868E-01    0.649103E-02    0.160000E-02
    0.342770E-01    0.649103E-02    0.160000E-02
    0.348731E-01    0.649103E-02    0.160000E-02
    0.354751E-01    0.649103E-02    0.160000E-02
    0.360832E-01    0.649103E-02    0.160000E-02
    0.366974E-01    0.649103E-02    0.160000E-02
    0.308223E-01    0.669651E-02    0.160000E-02
    0.313839E-01    0.669651E-02    0.160000E-02
    0.319510E-01    0.669651E-02    0.160000E-02
    0.325239E-01    0.669651E-02    0.160000E-02
    0.331024E-01    0.669651E-02    0.160000E-02
    0.336868E-01    0.669651E-02    0.160000E-02
    0.342770E-01    0.669651E-02    0.160000E-02
    0.348731E-01    0.669651E-02    0.160000E-02
    0.354751E-01    0.669651E-02    0.160000E-02
    0.360832E-01    0.669651E-02    0.160000E-02
    0.366974E-01    0.669651E-02    0.160000E-02
</DataArray>
</Points>
<PointData>
<DataArray Name="Velocity" type="Float64" format="ascii" NumberOfComponents="3">
    0.874642E-01   -0.229531E-03    0.000000E+00
    0.875129E-01   -0.216856E-03    0.000000E+00
    0.875591E-01   -0.203270E-03    0.000000E+00
    0.876030E-01   -0.190592E-03    0.000000E+00
    0.876446E-01   -0.178755E-03    0.000000E+00
    0.876841E-01   -0.167698E-03    0.000000E+00
    0.877217E-01   -0.157364E-03    0.000000E+00
    0.877573E-01   -0.147701E-03    0.000000E+00
    0.877912E-01   -0.138661E-03    0.000000E+00
    0.878234E-01   -0.130198E-03    0.000000E+00
    0.878539E-01   -0.122272E-03    0.000000E+00
    0.874691E-01   -0.237385E-03    0.000000E+00
    0.875174E-01   -0.224315E-03    0.000000E+00
    0.875633E-01   -0.210302E-03    0.000000E+00
    0.876068E-01   -0.197220E-03    0.000000E+00
    0.876482E-01   -0.185002E-03    0.000000E+00
    0.876875E-01   -0.173585E-03    0.000000E+00
    0.877248E-01   -0.162911E-03    0.000000E+00
    0.877602E-01   -0.152928E-03    0.000000E+00
    0.877938E-01   -0.143587E-03    0.000000E+00
    0.878258E-01   -0.134843E-03    0.000000E+00
    0.878562E-01   -0.126652E-03    0.000000E+00
    0.874730E-01   -0.245037E-03    0.000000E+00
    0.875210E-01   -0.231582E-03    0.000000E+00
    0.875666E-01   -0.217152E-03    0.000000E+00
    0.876099E-01   -0.203678E-03    0.000000E+00
    0.876511E-01   -0.191090E-03    0.000000E+00
    0.876901E-01   -0.179325E-03    0.000000E+00
    0.877272E-01   -0.168323E-03    0.000000E+00
    0.877625E-01   -0.158030E-03    0.000000E+00
    0.877960E-01   -0.148397E-03    0.000000E+00
    0.878278E-01   -0.139377E-03    0.000000E+00
    0.878580E-01   -0.130926E-03    0.000000E+00
    0.874775E-01   -0.252475E-03    0.000000E+00
    0.875252E-01   -0.238647E-03    0.000000E+00
    0.875705E-01   -0.223814E-03    0.000000E+00
    0.876135E-01   -0.209960E-03    0.000000E+00
    0.876543E-01   -0.197014E-03    0.000000E+00
    0.876931E-01   -0.184911E-03    0.000000E+00
    0.877300E-01   -0.173590E-03    0.000000E+00
    0.877651E-01   -0.162997E-03    0.000000E+00
    0.877984E-01   -0.153080E-03    0.000000E+00
    0.878300E-01   -0.143792E-03    0.000000E+00
    0.878601E-01   -0.135088E-03    0.000000E+00
    0.874825E-01   -0.259689E-03    0.000000E+00
    0.875298E-01   -0.245503E-03    0.000000E+00
    0.875747E-01   -0.230280E-03    0.000000E+00
    0.876174E-01   -0.216059E-03    0.000000E+00
    0.876580E-01   -0.202767E-03    0.000000E+00
    0.876965E-01   -0.190336E-03    0.000000E+00
    0.877332E-01   -0.178708E-03    0.000000E+00
    0.877680E-01   -0.167823E-03    0.000000E+00
    0.878011E-01   -0.157632E-03    0.000000E+00
    0.878325E-01   -0.148085E-03    0.000000E+00
    0.878625E-01   -0.139137E-03    0.000000E+00
    0.874879E-01   -0.266647E-03    0.000000E+00
    0.875349E-01   -0.252117E-03    0.000000E+00
    0.875794E-01   -0.236521E-03    0.000000E+00
    0.876218E-01   -0.221947E-03    0.000000E+00
    0.876620E-01   -0.208323E-03    0.000000E+00
    0.877003E-01   -0.195579E-03    0.000000E+00
    0.877366E-01   -0.183654E-03    0.000000E+00
    0.877712E-01   -0.172490E-03    0.000000E+00
    0.878041E-01   -0.162034E-03    0.000000E+00
    0.878353E-01   -0.152238E-03    0.000000E+00
    0.878650E-01   -0.143054E-03    0.000000E+00
    0.874942E-01   -0.273711E-03    0.000000E+00
    0.875406E-01   -0.258834E-03    0.000000E+00
    0.875848E-01   -0.242862E-03    0.000000E+00
    0.876267E-01   -0.227933E-03    0.000000E+00
    0.876666E-01   -0.213973E-03    0.000000E+00
    0.877045E-01   -0.200912E-03    0.000000E+00
    0.877406E-01   -0.188688E-03    0.000000E+00
    0.877749E-01   -0.177241E-03    0.000000E+00
    0.878075E-01   -0.166518E-03    0.000000E+00
    0.878385E-01   -0.156469E-03    0.000000E+00
    0.878680E-01   -0.147046E-03    0.000000E+00
    0.875012E-01   -0.280861E-03    0.000000E+00
    0.875472E-01   -0.265637E-03    0.000000E+00
    0.875908E-01   -0.249288E-03    0.000000E+00
    0.876323E-01   -0.234003E-03    0.000000E+00
    0.876718E-01   -0.219705E-03    0.000000E+00
    0.877094E-01   -0.206326E-03    0.000000E+00
    0.877451E-01   -0.193799E-03    0.000000E+00
    0.877790E-01   -0.182067E-03    0.000000E+00
    0.878113E-01   -0.171075E-03    0.000000E+00
    0.878421E-01   -0.160770E-03    0.000000E+00
    0.878713E-01   -0.151106E-03    0.000000E+00
    0.875091E-01   -0.288080E-03    0.000000E+00
    0.875545E-01   -0.272509E-03    0.000000E+00
    0.875976E-01   -0.255783E-03    0.000000E+00
    0.876386E-01   -0.240141E-03    0.000000E+00
    0.876776E-01   -0.225506E-03    0.000000E+00
    0.877148E-01   -0.211806E-03    0.000000E+00
    0.877501E-01   -0.198977E-03    0.000000E+00
    0.877837E-01   -0.186959E-03    0.000000E+00
    0.878157E-01   -0.175695E-03    0.000000E+00
    0.878461E-01   -0.165134E-03    0.000000E+00
    0.878750E-01   -0.155228E-03    0.000000E+00
    0.875179E-01   -0.295343E-03    0.000000E+00
    0.875626E-01   -0.279429E-03    0.000000E+00
    0.876051E-01   -0.262329E-03    0.000000E+00
    0.876456E-01   -0.246332E-03    0.000000E+00
    0.876841E-01   -0.231360E-03    0.000000E+00
    0.877208E-01   -0.217341E-03    0.000000E+00
    0.877557E-01   -0.204210E-03    0.000000E+00
    0.877889E-01   -0.191905E-03    0.000000E+00
    0.878205E-01   -0.180370E-03    0.000000E+00
    0.878505E-01   -0.169552E-03    0.000000E+00
    0.878792E-01   -0.159401E-03    0.000000E+00
    0.875276E-01   -0.302631E-03    0.000000E+00
    0.875716E-01   -0.286376E-03    0.000000E+00
    0.876134E-01   -0.268905E-03    0.000000E+00
    0.876533E-01   -0.252556E-03    0.000000E+00
    0.876913E-01   -0.237250E-03    0.000000E+00
    0.877274E-01   -0.222915E-03    0.000000E+00
    0.877618E-01   -0.209483E-03    0.000000E+00
    0.877946E-01   -0.196893E-03    0.000000E+00
    0.878258E-01   -0.185086E-03    0.000000E+00
    0.878555E-01   -0.174011E-03    0.000000E+00
    0.878838E-01   -0.163616E-03    0.000000E+00
    0.874632E-01   -0.231425E-03    0.566828E-19
    0.875120E-01   -0.216856E-03    0.531145E-19
    0.875582E-01   -0.203270E-03    0.497867E-19
    0.876022E-01   -0.190592E-03    0.466816E-19
    0.876439E-01   -0.178755E-03    0.437825E-19
    0.876834E-01   -0.167698E-03    0.410742E-19
    0.877210E-01   -0.157364E-03    0.385431E-19
    0.877567E-01   -0.147701E-03    0.361764E-19
    0.877907E-01   -0.138661E-03    0.339622E-19
    0.878229E-01   -0.130198E-03    0.318894E-19
    0.878535E-01   -0.122272E-03    0.299480E-19
    0.874691E-01   -0.239337E-03    0.586208E-19
    0.875174E-01   -0.224315E-03    0.549414E-19
    0.875633E-01   -0.210302E-03    0.515090E-19
    0.876068E-01   -0.197220E-03    0.483050E-19
    0.876482E-01   -0.185002E-03    0.453125E-19
    0.876875E-01   -0.173585E-03    0.425160E-19
    0.877248E-01   -0.162911E-03    0.399018E-19
    0.877602E-01   -0.152928E-03    0.374566E-19
    0.877938E-01   -0.143587E-03    0.351688E-19
    0.878258E-01   -0.134843E-03    0.330271E-19
    0.878562E-01   -0.126652E-03    0.310209E-19
    0.874730E-01   -0.247046E-03    0.605089E-19
    0.875210E-01   -0.231582E-03    0.567212E-19
    0.875666E-01   -0.217152E-03    0.531869E-19
    0.876099E-01   -0.203678E-03    0.498867E-19
    0.876511E-01   -0.191090E-03    0.468036E-19
    0.876901E-01   -0.179325E-03    0.439219E-19
    0.877272E-01   -0.168323E-03    0.412272E-19
    0.877625E-01   -0.158030E-03    0.387062E-19
    0.877960E-01   -0.148397E-03    0.363467E-19
    0.878278E-01   -0.139377E-03    0.341374E-19
    0.878580E-01   -0.130926E-03    0.320675E-19
    0.874775E-01   -0.254540E-03    0.623442E-19
    0.875252E-01   -0.238647E-03    0.584518E-19
    0.875705E-01   -0.223814E-03    0.548186E-19
    0.876135E-01   -0.209960E-03    0.514254E-19
    0.876543E-01   -0.197014E-03    0.482545E-19
    0.876931E-01   -0.184911E-03    0.452900E-19
    0.877300E-01   -0.173590E-03    0.425173E-19
    0.877651E-01   -0.162997E-03    0.399227E-19
    0.877984E-01   -0.153080E-03    0.374937E-19
    0.878300E-01   -0.143792E-03    0.352189E-19
    0.878601E-01   -0.135088E-03    0.330871E-19
    0.874825E-01   -0.261807E-03    0.641243E-19
    0.875298E-01   -0.245503E-03    0.601308E-19
    0.875747E-01   -0.230280E-03    0.564023E-19
    0.876174E-01   -0.216059E-03    0.529191E-19
    0.876580E-01   -0.202767E-03    0.496635E-19
    0.876965E-01   -0.190336E-03    0.466190E-19
    0.877332E-01   -0.178708E-03    0.437707E-19
    0.877680E-01   -0.167823E-03    0.411049E-19
    0.878011E-01   -0.157632E-03    0.386087E-19
    0.878325E-01   -0.148085E-03    0.362703E-19
    0.878625E-01   -0.139137E-03    0.340786E-19
    0.874879E-01   -0.268817E-03    0.658411E-19
    0.875349E-01   -0.252117E-03    0.617507E-19
    0.875794E-01   -0.236521E-03    0.579308E-19
    0.876218E-01   -0.221947E-03    0.543614E-19
    0.876620E-01   -0.208323E-03    0.510244E-19
    0.877003E-01   -0.195579E-03    0.479030E-19
    0.877366E-01   -0.183654E-03    0.449822E-19
    0.877712E-01   -0.172490E-03    0.422479E-19
    0.878041E-01   -0.162034E-03    0.396870E-19
    0.878353E-01   -0.152238E-03    0.372875E-19
    0.878650E-01   -0.143054E-03    0.350381E-19
    0.874942E-01   -0.275931E-03    0.675837E-19
    0.875406E-01   -0.258834E-03    0.633959E-19
    0.875848E-01   -0.242862E-03    0.594839E-19
    0.876267E-01   -0.227933E-03    0.558275E-19
    0.876666E-01   -0.213973E-03    0.524083E-19
    0.877045E-01   -0.200912E-03    0.492093E-19
    0.877406E-01   -0.188688E-03    0.462151E-19
    0.877749E-01   -0.177241E-03    0.434115E-19
    0.878075E-01   -0.166518E-03    0.407851E-19
    0.878385E-01   -0.156469E-03    0.383237E-19
    0.878680E-01   -0.147046E-03    0.360159E-19
    0.875012E-01   -0.283134E-03    0.693478E-19
    0.875472E-01   -0.265637E-03    0.650623E-19
    0.875908E-01   -0.249288E-03    0.610580E-19
    0.876323E-01   -0.234003E-03    0.573142E-19
    0.876718E-01   -0.219705E-03    0.538123E-19
    0.877094E-01   -0.206326E-03    0.505352E-19
    0.877451E-01   -0.193799E-03    0.474671E-19
    0.877790E-01   -0.182067E-03    0.445936E-19
    0.878113E-01   -0.171075E-03    0.419012E-19
    0.878421E-01   -0.160770E-03    0.393773E-19
    0.878713E-01   -0.151106E-03    0.370104E-19
    0.875091E-01   -0.290403E-03    0.711283E-19
    0.875545E-01   -0.272509E-03    0.667455E-19
    0.875976E-01   -0.255783E-03    0.626488E-19
    0.876386E-01   -0.240141E-03    0.588177E-19
    0.876776E-01   -0.225506E-03    0.552330E-19
    0.877148E-01   -0.211806E-03    0.518776E-19
    0.877501E-01   -0.198977E-03    0.487354E-19
    0.877837E-01   -0.186959E-03    0.457917E-19
    0.878157E-01   -0.175695E-03    0.430329E-19
    0.878461E-01   -0.165134E-03    0.404462E-19
    0.878750E-01   -0.155228E-03    0.380198E-19
    0.875179E-01   -0.297718E-03    0.729198E-19
    0.875626E-01   -0.279429E-03    0.684404E-19
    0.876051E-01   -0.262329E-03    0.642521E-19
    0.876456E-01   -0.246332E-03    0.603340E-19
    0.876841E-01   -0.231360E-03    0.566669E-19
    0.877208E-01   -0.217341E-03    0.532333E-19
    0.877557E-01   -0.204210E-03    0.500170E-19
    0.877889E-01   -0.191905E-03    0.470032E-19
    0.878205E-01   -0.180370E-03    0.441779E-19
    0.878505E-01   -0.169552E-03    0.415282E-19
    0.878792E-01   -0.159401E-03    0.390421E-19
    0.875276E-01   -0.305056E-03    0.747171E-19
    0.875716E-01   -0.286376E-03    0.701420E-19
    0.876134E-01   -0.268905E-03    0.658627E-19
    0.876533E-01   -0.252556E-03    0.618584E-19
    0.876913E-01   -0.237250E-03    0.581096E-19
    0.877274E-01   -0.222915E-03    0.545984E-19
    0.877618E-01   -0.209483E-03    0.513086E-19
    0.877946E-01   -0.196893E-03    0.482248E-19
    0.878258E-01   -0.185086E-03    0.453330E-19
    0.878555E-01   -0.174011E-03    0.426203E-19
    0.878838E-01   -0.163616E-03    0.400744E-19
</DataArray>
</PointData>
<CellData>
<DataArray Name="DP" type="Float64" format="ascii" NumberOfComponents="1">
      0.000000E+0000
      0.000000E+0000
      0.000000E+0000
      0.000000E+0000
      0.000000E+0000
      0.000000E+0000
      0.000000E+0000
      0.000000E+0000
      0.000000E+0000
      0.000000E+0000
      0.000000E+0000
      0.000000E+0000
      0.000000E+0000
      0.000000E+0000
      0.000000E+0000
      0.000000E+0000
      0.000000E+0000
      0.000000E+0000
      0.000000E+0000
      0.000000E+0000
      0.000000E+0000
      0.000000E+0000
      0.000000E+0000
      0.000000E+0000
      0.000000E+0000
      0.000000E+0000
      0.000000E+0000
      0.000000E+0000
      0.000000E+0000
      0.000000E+0000
      0.000000E+0000
      0.000000E+0000
      0.000000E+0000
      0.000000E+0000
      0.000000E+0000
      0.000000E+0000
      0.000000E+0000
      0.000000E+0000
      0.000000E+0000
      0.000000E+0000
      0.000000E+0000
      0.000000E+0000
      0.000000E+0000
      0.000000E+0000
      0.000000E+0000
      0.000000E+0000
      0.000000E+0000
      0.000000E+0000
      0.000000E+0000
      0.000000E+0000
      0.000000E+0000
      0.000000E+0000
      0.000000E+0000
      0.000000E+0000
      0.000000E+0000
      0.000000E+0000
      0.000000E+0000
      0.000000E+0000
      0.000000E+0000
      0.000000E+0000
      0.000000E+0000
      0.000000E+0000
      0.000000E+0000
      0.000000E+0000
      0.000000E+0000
      0.000000E+0000
      0.000000E+0000
      0.000000E+0000
      0.000000E+0000
      0.000000E+0000
      0.000000E+0000
      0.000000E+0000
      0.000000E+0000
      0.000000E+0000
      0.000000E+0000
      0.000000E+0000
      0.000000E+0000
      0.000000E+0000
      0.000000E+0000
      0.000000E+0000
      0.000000E+0000
      0.000000E+0000
      0.000000E+0000
      0.000000E+0000
      0.000000E+0000
      0.000000E+0000
      0.000000E+0000
      0.000000E+0000
      0.000000E+0000
      0.000000E+0000
      0.000000E+0000
      0.000000E+0000
      0.000000E+0000
      0.000000E+0000
      0.000000E+0000
      0.000000E+0000
      0.000000E+0000
      0.000000E+0000
      0.000000E+0000
      0.000000E+0000
</DataArray>
<DataArray Name="P" type="Float64" format="ascii" NumberOfComponents="1">
      0.275597E+0000
      0.269106E+0000
      0.262551E+0000
      0.255931E+0000
      0.249245E+0000
      0.242491E+0000
      0.235671E+0000
      0.228782E+0000
      0.221824E+0000
      0.214797E+0000
      0.275596E+0000
      0.269106E+0000
      0.262551E+0000
      0.255931E+0000
      0.249244E+0000
      0.242491E+0000
      0.235671E+0000
      0.228782E+0000
      0.221824E+0000
      0.214797E+0000
      0.275596E+0000
      0.269106E+0000
      0.262551E+0000
      0.255931E+0000
      0.249244E+0000
      0.242491E+0000
      0.235670E+0000
      0.228781E+0000
      0.221824E+0000
      0.214796E+0000
      0.275596E+0000
      0.269106E+0000
      0.262551E+0000
      0.255930E+0000
      0.249244E+0000
      0.242491E+0000
      0.235670E+0000
      0.228781E+0000
      0.221823E+0000
      0.214796E+0000
      0.275595E+0000
      0.269105E+0000
      0.262550E+0000
      0.255930E+0000
      0.249244E+0000
      0.242490E+0000
      0.235670E+0000
      0.228781E+0000
      0.221823E+0000
      0.214796E+0000
      0.275595E+0000
      0.269105E+0000
      0.262550E+0000
      0.255930E+0000
      0.249243E+0000
      0.242490E+0000
      0.235669E+0000
      0.228781E+0000
      0.221823E+0000
      0.214796E+0000
      0.275595E+0000
      0.269105E+0000
      0.262550E+0000
      0.255929E+0000
      0.249243E+0000
      0.242490E+0000
      0.235669E+0000
      0.228780E+0000
      0.221823E+0000
      0.214795E+0000
      0.275594E+0000
      0.269104E+0000
      0.262549E+0000
      0.255929E+0000
      0.249243E+0000
      0.242490E+0000
      0.235669E+0000
      0.228780E+0000
      0.221822E+0000
      0.214795E+0000
      0.275594E+0000
      0.269104E+0000
      0.262549E+0000
      0.255929E+0000
      0.249242E+0000
      0.242489E+0000
      0.235669E+0000
      0.228780E+0000
      0.221822E+0000
      0.214795E+0000
      0.275594E+0000
      0.269104E+0000
      0.262549E+0000
      0.255928E+0000
      0.249242E+0000
      0.242489E+0000
      0.235668E+0000
      0.228779E+0000
      0.221822E+0000
      0.214795E+0000
</DataArray>
<DataArray Name="RHO" type="Float64" format="ascii" NumberOfComponents="1">
      0.117197E+0001
      0.117197E+0001
      0.117197E+0001
      0.117197E+0001
      0.117197E+0001
      0.117197E+0001
      0.117197E+0001
      0.117197E+0001
      0.117197E+0001
      0.117197E+0001
      0.117197E+0001
      0.117197E+0001
      0.117197E+0001
      0.117197E+0001
      0.117197E+0001
      0.117197E+0001
      0.117197E+0001
      0.117197E+0001
      0.117197E+0001
      0.117197E+0001
      0.117197E+0001
      0.117197E+0001
      0.117197E+0001
      0.117197E+0001
      0.117197E+0001
      0.117197E+0001
      0.117197E+0001
      0.117197E+0001
      0.117197E+0001
      0.117197E+0001
      0.117197E+0001
      0.117197E+0001
      0.117197E+0001
      0.117197E+0001
      0.117197E+0001
      0.117197E+0001
      0.117197E+0001
      0.117197E+0001
      0.117197E+0001
      0.117197E+0001
      0.117197E+0001
      0.117197E+0001
      0.117197E+0001
      0.117197E+0001
      0.117197E+0001
      0.117197E+0001
      0.117197E+0001
      0.117197E+0001
      0.117197E+0001
      0.117197E+0001
      0.117197E+0001
      0.117197E+0001
      0.117197E+0001
      0.117197E+0001
      0.117197E+0001
      0.117197E+0001
      0.117197E+0001
      0.117197E+0001
      0.117197E+0001
      0.117197E+0001
      0.117197E+0001
      0.117197E+0001