<?xml version="1.0"?>
<VTKFile type="StructuredGrid" version="0.1" byte_order="LittleEndian">
<StructuredGrid WholeExtent="          20          30          60          70           0           1">
<Piece Extent="          20          30          60          70           0           1">
<Points>
<DataArray NumberOfComponents="3" type="Float64" format="ascii">
    0.557795E-02    0.167655E-01    0.000000E+00
    0.588705E-02    0.167655E-01    0.000000E+00
    0.619924E-02    0.167655E-01    0.000000E+00
    0.651456E-02    0.167655E-01    0.000000E+00
    0.683303E-02    0.167655E-01    0.000000E+00
    0.715469E-02    0.167655E-01    0.000000E+00
    0.747956E-02    0.167655E-01    0.000000E+00
    0.780768E-02    0.167655E-01    0.000000E+00
    0.813908E-02    0.167655E-01    0.000000E+00
    0.847379E-02    0.167655E-01    0.000000E+00
    0.881185E-02    0.167655E-01    0.000000E+00
    0.557795E-02    0.172792E-01    0.000000E+00
    0.588705E-02    0.172792E-01    0.000000E+00
    0.619924E-02    0.172792E-01    0.000000E+00
    0.651456E-02    0.172792E-01    0.000000E+00
    0.683303E-02    0.172792E-01    0.000000E+00
    0.715469E-02    0.172792E-01    0.000000E+00
    0.747956E-02    0.172792E-01    0.000000E+00
    0.780768E-02    0.172792E-01    0.000000E+00
    0.813908E-02    0.172792E-01    0.000000E+00
    0.847379E-02    0.172792E-01    0.000000E+00
    0.881185E-02    0.172792E-01    0.000000E+00
    0.557795E-02    0.178083E-01    0.000000E+00
    0.588705E-02    0.178083E-01    0.000000E+00
    0.619924E-02    0.178083E-01    0.000000E+00
    0.651456E-02    0.178083E-01    0.000000E+00
    0.683303E-02    0.178083E-01    0.000000E+00
    0.715469E-02    0.178083E-01    0.000000E+00
    0.747956E-02    0.178083E-01    0.000000E+00
    0.780768E-02    0.178083E-01    0.000000E+00
    0.813908E-02    0.178083E-01    0.000000E+00
    0.847379E-02    0.178083E-01    0.000000E+00
    0.881185E-02    0.178083E-01    0.000000E+00
    0.557795E-02    0.183533E-01    0.000000E+00
    0.588705E-02    0.183533E-01    0.000000E+00
    0.619924E-02    0.183533E-01    0.000000E+00
    0.651456E-02    0.183533E-01    0.000000E+00
    0.683303E-02    0.183533E-01    0.000000E+00
    0.715469E-02    0.183533E-01    0.000000E+00
    0.747956E-02    0.183533E-01    0.000000E+00
    0.780768E-02    0.183533E-01    0.000000E+00
    0.813908E-02    0.183533E-01    0.000000E+00
    0.847379E-02    0.183533E-01    0.000000E+00
    0.881185E-02    0.183533E-01    0.000000E+00
    0.557795E-02    0.189147E-01    0.000000E+00
    0.588705E-02    0.189147E-01    0.000000E+00
    0.619924E-02    0.189147E-01    0.000000E+00
    0.651456E-02    0.189147E-01    0.000000E+00
    0.683303E-02    0.189147E-01    0.000000E+00
    0.715469E-02    0.189147E-01    0.000000E+00
    0.747956E-02    0.189147E-01    0.000000E+00
    0.780768E-02    0.189147E-01    0.000000E+00
    0.813908E-02    0.189147E-01    0.000000E+00
    0.847379E-02    0.189147E-01    0.000000E+00
    0.881185E-02    0.189147E-01    0.000000E+00
    0.557795E-02    0.194929E-01    0.000000E+00
    0.588705E-02    0.194929E-01    0.000000E+00
    0.619924E-02    0.194929E-01    0.000000E+00
    0.651456E-02    0.194929E-01    0.000000E+00
    0.683303E-02    0.194929E-01    0.000000E+00
    0.715469E-02    0.194929E-01    0.000000E+00
    0.747956E-02    0.194929E-01    0.000000E+00
    0.780768E-02    0.194929E-01    0.000000E+00
    0.813908E-02    0.194929E-01    0.000000E+00
    0.847379E-02    0.194929E-01    0.000000E+00
    0.881185E-02    0.194929E-01    0.000000E+00
    0.557795E-02    0.200884E-01    0.000000E+00
    0.588705E-02    0.200884E-01    0.000000E+00
    0.619924E-02    0.200884E-01    0.000000E+00
    0.651456E-02    0.200884E-01    0.000000E+00
    0.683303E-02    0.200884E-01    0.000000E+00
    0.715469E-02    0.200884E-01    0.000000E+00
    0.747956E-02    0.200884E-01    0.000000E+00
    0.780768E-02    0.200884E-01    0.000000E+00
    0.813908E-02    0.200884E-01    0.000000E+00
    0.847379E-02    0.200884E-01    0.000000E+00
    0.881185E-02    0.200884E-01    0.000000E+00
    0.557795E-02    0.207018E-01    0.000000E+00
    0.588705E-02    0.207018E-01    0.000000E+00
    0.619924E-02    0.207018E-01    0.000000E+00
    0.651456E-02    0.207018E-01    0.000000E+00
    0.683303E-02    0.207018E-01    0.000000E+00
    0.715469E-02    0.207018E-01    0.000000E+00
    0.747956E-02    0.207018E-01    0.000000E+00
    0.780768E-02    0.207018E-01    0.000000E+00
    0.813908E-02    0.207018E-01    0.000000E+00
    0.847379E-02    0.207018E-01    0.000000E+00
    0.881185E-02    0.207018E-01    0.000000E+00
    0.557795E-02    0.213336E-01    0.000000E+00
    0.588705E-02    0.213336E-01    0.000000E+00
    0.619924E-02    0.213336E-01    0.000000E+00
    0.651456E-02    0.213336E-01    0.000000E+00
    0.683303E-02    0.213336E-01    0.000000E+00
    0.715469E-02    0.213336E-01    0.000000E+00
    0.747956E-02    0.213336E-01    0.000000E+00
    0.780768E-02    0.213336E-01    0.000000E+00
    0.813908E-02    0.213336E-01    0.000000E+00
    0.847379E-02    0.213336E-01    0.000000E+00
    0.881185E-02    0.213336E-01    0.000000E+00
    0.557795E-02    0.219843E-01    0.000000E+00
    0.588705E-02    0.219843E-01    0.000000E+00
    0.619924E-02    0.219843E-01    0.000000E+00
    0.651456E-02    0.219843E-01    0.000000E+00
    0.683303E-02    0.219843E-01    0.000000E+00
    0.715469E-02    0.219843E-01    0.000000E+00
    0.747956E-02    0.219843E-01    0.000000E+00
    0.780768E-02    0.219843E-01    0.000000E+00
    0.813908E-02    0.219843E-01    0.000000E+00
    0.847379E-02    0.219843E-01    0.000000E+00
    0.881185E-02    0.219843E-01    0.000000E+00
    0.557795E-02    0.226546E-01    0.000000E+00
    0.588705E-02    0.226546E-01    0.000000E+00
    0.619924E-02    0.226546E-01    0.000000E+00
    0.651456E-02    0.226546E-01    0.000000E+00
    0.683303E-02    0.226546E-01    0.000000E+00
    0.715469E-02    0.226546E-01    0.000000E+00
    0.747956E-02    0.226546E-01    0.000000E+00
    0.780768E-02    0.226546E-01    0.000000E+00
    0.813908E-02    0.226546E-01    0.000000E+00
    0.847379E-02    0.226546E-01    0.000000E+00
    0.881185E-02    0.226546E-01    0.000000E+00
    0.557795E-02    0.167655E-01    0.160000E-02
    0.588705E-02    0.167655E-01    0.160000E-02
    0.619924E-02    0.167655E-01    0.160000E-02
    0.651456E-02    0.167655E-01    0.160000E-02
    0.683303E-02    0.167655E-01    0.160000E-02
    0.715469E-02    0.167655E-01    0.160000E-02
    0.747956E-02    0.167655E-01    0.160000E-02
    0.780768E-02    0.167655E-01    0.160000E-02
    0.813908E-02    0.167655E-01    0.160000E-02
    0.847379E-02    0.167655E-01    0.160000E-02
    0.881185E-02    0.167655E-01    0.160000E-02
    0.557795E-02    0.172792E-01    0.160000E-02
    0.588705E-02    0.172792E-01    0.160000E-02
    0.619924E-02    0.172792E-01    0.160000E-02
    0.651456E-02    0.172792E-01    0.160000E-02
    0.683303E-02    0.172792E-01    0.160000E-02
    0.715469E-02    0.172792E-01    0.160000E-02
    0.747956E-02    0.172792E-01    0.160000E-02
    0.780768E-02    0.172792E-01    0.160000E-02
    0.813908E-02    0.172792E-01    0.160000E-02
    0.847379E-02    0.172792E-01    0.160000E-02
    0.881185E-02    0.172792E-01    0.160000E-02
    0.557795E-02    0.178083E-01    0.160000E-02
    0.588705E-02    0.178083E-01    0.160000E-02
    0.619924E-02    0.178083E-01    0.160000E-02
    0.651456E-02    0.178083E-01    0.160000E-02
    0.683303E-02    0.178083E-01    0.160000E-02
    0.715469E-02    0.178083E-01    0.160000E-02
    0.747956E-02    0.178083E-01    0.160000E-02
    0.780768E-02    0.178083E-01    0.160000E-02
    0.813908E-02    0.178083E-01    0.160000E-02
    0.847379E-02    0.178083E-01    0.160000E-02
    0.881185E-02    0.178083E-01    0.160000E-02
    0.557795E-02    0.183533E-01    0.160000E-02
    0.588705E-02    0.183533E-01    0.160000E-02
    0.619924E-02    0.183533E-01    0.160000E-02
    0.651456E-02    0.183533E-01    0.160000E-02
    0.683303E-02    0.183533E-01    0.160000E-02
    0.715469E-02    0.183533E-01    0.160000E-02
    0.747956E-02    0.183533E-01    0.160000E-02
    0.780768E-02    0.183533E-01    0.160000E-02
    0.813908E-02    0.183533E-01    0.160000E-02
    0.847379E-02    0.183533E-01    0.160000E-02
    0.881185E-02    0.183533E-01    0.160000E-02
    0.557795E-02    0.189147E-01    0.160000E-02
    0.588705E-02    0.189147E-01    0.160000E-02
    0.619924E-02    0.189147E-01    0.160000E-02
    0.651456E-02    0.189147E-01    0.160000E-02
    0.683303E-02    0.189147E-01    0.160000E-02
    0.715469E-02    0.189147E-01    0.160000E-02
    0.747956E-02    0.189147E-01    0.160000E-02
    0.780768E-02    0.189147E-01    0.160000E-02
    0.813908E-02    0.189147E-01    0.160000E-02
    0.847379E-02    0.189147E-01    0.160000E-02
    0.881185E-02    0.189147E-01    0.160000E-02
    0.557795E-02    0.194929E-01    0.160000E-02
    0.588705E-02    0.194929E-01    0.160000E-02
    0.619924E-02    0.194929E-01    0.160000E-02
    0.651456E-02    0.194929E-01    0.160000E-02
    0.683303E-02    0.194929E-01    0.160000E-02
    0.715469E-02    0.194929E-01    0.160000E-02
    0.747956E-02    0.194929E-01    0.160000E-02
    0.780768E-02    0.194929E-01    0.160000E-02
    0.813908E-02    0.194929E-01    0.160000E-02
    0.847379E-02    0.194929E-01    0.160000E-02
    0.881185E-02    0.194929E-01    0.160000E-02
    0.557795E-02    0.200884E-01    0.160000E-02
    0.588705E-02    0.200884E-01    0.160000E-02
    0.619924E-02    0.200884E-01    0.160000E-02
    0.651456E-02    0.200884E-01    0.160000E-02
    0.683303E-02    0.200884E-01    0.160000E-02
    0.715469E-02    0.200884E-01    0.160000E-02
    0.747956E-02    0.200884E-01    0.160000E-02
    0.780768E-02    0.200884E-01    0.160000E-02
    0.813908E-02    0.200884E-01    0.160000E-02
    0.847379E-02    0.200884E-01    0.160000E-02
    0.881185E-02    0.200884E-01    0.160000E-02
    0.557795E-02    0.207018E-01    0.160000E-02
    0.588705E-02    0.207018E-01    0.160000E-02
    0.619924E-02    0.207018E-01    0.160000E-02
    0.651456E-02    0.207018E-01    0.160000E-02
    0.683303E-02    0.207018E-01    0.160000E-02
    0.715469E-02    0.207018E-01    0.160000E-02
    0.747956E-02    0.207018E-01    0.160000E-02
    0.780768E-02    0.207018E-01    0.160000E-02
    0.813908E-02    0.207018E-01    0.160000E-02
    0.847379E-02    0.207018E-01    0.160000E-02
    0.881185E-02    0.207018E-01    0.160000E-02
    0.557795E-02    0.213336E-01    0.160000E-02
    0.588705E-02    0.213336E-01    0.160000E-02
    0.619924E-02    0.213336E-01    0.160000E-02
    0.651456E-02    0.213336E-01    0.160000E-02
    0.683303E-02    0.213336E-01    0.160000E-02
    0.715469E-02    0.213336E-01    0.160000E-02
    0.747956E-02    0.213336E-01    0.160000E-02
    0.780768E-02    0.213336E-01    0.160000E-02
    0.813908E-02    0.213336E-01    0.160000E-02
    0.847379E-02    0.213336E-01    0.160000E-02
    0.881185E-02    0.213336E-01    0.160000E-02
    0.557795E-02    0.219843E-01    0.160000E-02
    0.588705E-02    0.219843E-01    0.160000E-02
    0.619924E-02    0.219843E-01    0.160000E-02
    0.651456E-02    0.219843E-01    0.160000E-02
    0.683303E-02    0.219843E-01    0.160000E-02
    0.715469E-02    0.219843E-01    0.160000E-02
    0.747956E-02    0.219843E-01    0.160000E-02
    0.780768E-02    0.219843E-01    0.160000E-02
    0.813908E-02    0.219843E-01    0.160000E-02
    0.847379E-02    0.219843E-01    0.160000E-02
    0.881185E-02    0.219843E-01    0.160000E-02
    0.557795E-02    0.226546E-01    0.160000E-02
    0.588705E-02    0.226546E-01    0.160000E-02
    0.619924E-02    0.226546E-01    0.160000E-02
    0.651456E-02    0.226546E-01    0.160000E-02
    0.683303E-02    0.226546E-01    0.160000E-02
    0.715469E-02    0.226546E-01    0.160000E-02
    0.747956E-02    0.226546E-01    0.160000E-02
    0.780768E-02    0.226546E-01    0.160000E-02
    0.813908E-02    0.226546E-01    0.160000E-02
    0.847379E-02    0.226546E-01    0.160000E-02
    0.881185E-02    0.226546E-01    0.160000E-02
</DataArray>
</Points>
<PointData>
<DataArray Name="Velocity" type="Float64" format="ascii" NumberOfComponents="3">
    0.884693E-01   -0.851771E-03    0.000000E+00
    0.884248E-01   -0.882862E-03    0.000000E+00
    0.883782E-01   -0.929425E-03    0.000000E+00
    0.883298E-01   -0.991478E-03    0.000000E+00
    0.882797E-01   -0.107250E-02    0.000000E+00
    0.882284E-01   -0.117511E-02    0.000000E+00
    0.881766E-01   -0.130054E-02    0.000000E+00
    0.881251E-01   -0.144810E-02    0.000000E+00
    0.880749E-01   -0.161487E-02    0.000000E+00
    0.880269E-01   -0.179570E-02    0.000000E+00
    0.879818E-01   -0.198355E-02    0.000000E+00
    0.885266E-01   -0.753066E-03    0.000000E+00
    0.884861E-01   -0.779887E-03    0.000000E+00
    0.884437E-01   -0.821383E-03    0.000000E+00
    0.883995E-01   -0.878453E-03    0.000000E+00
    0.883538E-01   -0.954943E-03    0.000000E+00
    0.883069E-01   -0.105388E-02    0.000000E+00
    0.882595E-01   -0.117682E-02    0.000000E+00
    0.882123E-01   -0.132329E-02    0.000000E+00
    0.881661E-01   -0.149040E-02    0.000000E+00
    0.881217E-01   -0.167284E-02    0.000000E+00
    0.880798E-01   -0.186319E-02    0.000000E+00
    0.886106E-01   -0.671671E-03    0.000000E+00
    0.885795E-01   -0.696912E-03    0.000000E+00
    0.885479E-01   -0.736304E-03    0.000000E+00
    0.885157E-01   -0.790868E-03    0.000000E+00
    0.884830E-01   -0.864381E-03    0.000000E+00
    0.884496E-01   -0.959840E-03    0.000000E+00
    0.884153E-01   -0.107882E-02    0.000000E+00
    0.883800E-01   -0.122090E-02    0.000000E+00
    0.883437E-01   -0.138331E-02    0.000000E+00
    0.883061E-01   -0.156091E-02    0.000000E+00
    0.882674E-01   -0.174649E-02    0.000000E+00
    0.886812E-01   -0.604727E-03    0.000000E+00
    0.886573E-01   -0.629606E-03    0.000000E+00
    0.886334E-01   -0.668150E-03    0.000000E+00
    0.886095E-01   -0.721131E-03    0.000000E+00
    0.885853E-01   -0.792062E-03    0.000000E+00
    0.885604E-01   -0.883718E-03    0.000000E+00
    0.885342E-01   -0.997549E-03    0.000000E+00
    0.885063E-01   -0.113315E-02    0.000000E+00
    0.884762E-01   -0.128795E-02    0.000000E+00
    0.884433E-01   -0.145711E-02    0.000000E+00
    0.884074E-01   -0.163394E-02    0.000000E+00
    0.887366E-01   -0.549067E-03    0.000000E+00
    0.887178E-01   -0.573978E-03    0.000000E+00
    0.886993E-01   -0.612024E-03    0.000000E+00
    0.886808E-01   -0.663598E-03    0.000000E+00
    0.886620E-01   -0.731871E-03    0.000000E+00
    0.886423E-01   -0.819340E-03    0.000000E+00
    0.886213E-01   -0.927292E-03    0.000000E+00
    0.885980E-01   -0.105533E-02    0.000000E+00
    0.885720E-01   -0.120107E-02    0.000000E+00
    0.885425E-01   -0.136012E-02    0.000000E+00
    0.885093E-01   -0.152635E-02    0.000000E+00
    0.887789E-01   -0.501692E-03    0.000000E+00
    0.887636E-01   -0.526642E-03    0.000000E+00
    0.887485E-01   -0.564145E-03    0.000000E+00
    0.887334E-01   -0.614203E-03    0.000000E+00
    0.887180E-01   -0.679646E-03    0.000000E+00
    0.887016E-01   -0.762687E-03    0.000000E+00
    0.886837E-01   -0.864449E-03    0.000000E+00
    0.886635E-01   -0.984542E-03    0.000000E+00
    0.886404E-01   -0.112080E-02    0.000000E+00
    0.886137E-01   -0.126923E-02    0.000000E+00
    0.885831E-01   -0.142430E-02    0.000000E+00
    0.888108E-01   -0.460142E-03    0.000000E+00
    0.887977E-01   -0.484996E-03    0.000000E+00
    0.887849E-01   -0.521794E-03    0.000000E+00
    0.887719E-01   -0.570187E-03    0.000000E+00
    0.887585E-01   -0.632684E-03    0.000000E+00
    0.887441E-01   -0.711235E-03    0.000000E+00
    0.887282E-01   -0.806812E-03    0.000000E+00
    0.887100E-01   -0.919035E-03    0.000000E+00
    0.886890E-01   -0.104593E-02    0.000000E+00
    0.886646E-01   -0.118391E-02    0.000000E+00
    0.886365E-01   -0.132799E-02    0.000000E+00
    0.888343E-01   -0.422474E-03    0.000000E+00
    0.888225E-01   -0.447064E-03    0.000000E+00
    0.888107E-01   -0.482989E-03    0.000000E+00
    0.887988E-01   -0.529607E-03    0.000000E+00
    0.887864E-01   -0.589134E-03    0.000000E+00
    0.887731E-01   -0.663283E-03    0.000000E+00
    0.887582E-01   -0.752890E-03    0.000000E+00
    0.887414E-01   -0.857585E-03    0.000000E+00
    0.887219E-01   -0.975577E-03    0.000000E+00
    0.886993E-01   -0.110363E-02    0.000000E+00
    0.886733E-01   -0.123727E-02    0.000000E+00
    0.888497E-01   -0.386828E-03    0.000000E+00
    0.888380E-01   -0.410942E-03    0.000000E+00
    0.888263E-01   -0.445807E-03    0.000000E+00
    0.888142E-01   -0.490559E-03    0.000000E+00
    0.888016E-01   -0.547159E-03    0.000000E+00
    0.887881E-01   -0.617112E-03    0.000000E+00
    0.887733E-01   -0.701136E-03    0.000000E+00
    0.887567E-01   -0.798870E-03    0.000000E+00
    0.887379E-01   -0.908688E-03    0.000000E+00
    0.887165E-01   -0.102768E-02    0.000000E+00
    0.886923E-01   -0.115181E-02    0.000000E+00
    0.888560E-01   -0.350821E-03    0.000000E+00
    0.888432E-01   -0.374062E-03    0.000000E+00
    0.888298E-01   -0.407509E-03    0.000000E+00
    0.888158E-01   -0.450198E-03    0.000000E+00
    0.888011E-01   -0.503900E-03    0.000000E+00
    0.887856E-01   -0.569964E-03    0.000000E+00
    0.887689E-01   -0.649025E-03    0.000000E+00
    0.887509E-01   -0.740744E-03    0.000000E+00
    0.887314E-01   -0.843632E-03    0.000000E+00
    0.887104E-01   -0.955036E-03    0.000000E+00
    0.886876E-01   -0.107129E-02    0.000000E+00
    0.888530E-01   -0.311118E-03    0.000000E+00
    0.888370E-01   -0.332574E-03    0.000000E+00
    0.888197E-01   -0.363700E-03    0.000000E+00
    0.888011E-01   -0.403708E-03    0.000000E+00
    0.887813E-01   -0.454319E-03    0.000000E+00
    0.887604E-01   -0.516855E-03    0.000000E+00
    0.887387E-01   -0.591961E-03    0.000000E+00
    0.887164E-01   -0.679344E-03    0.000000E+00
    0.886940E-01   -0.777608E-03    0.000000E+00
    0.886718E-01   -0.884233E-03    0.000000E+00
    0.886501E-01   -0.995714E-03    0.000000E+00
    0.884649E-01   -0.848006E-03    0.207701E-18
    0.884207E-01   -0.882862E-03    0.216239E-18
    0.883749E-01   -0.929425E-03    0.227644E-18
    0.883273E-01   -0.991478E-03    0.242842E-18
    0.882784E-01   -0.107250E-02    0.262686E-18
    0.882283E-01   -0.117511E-02    0.287819E-18
    0.881776E-01   -0.130054E-02    0.318541E-18
    0.881271E-01   -0.144810E-02    0.354683E-18
    0.880775E-01   -0.161487E-02    0.395529E-18
    0.880297E-01   -0.179570E-02    0.439820E-18
    0.879842E-01   -0.198355E-02    0.485830E-18
    0.885266E-01   -0.749891E-03    0.183670E-18
    0.884861E-01   -0.779887E-03    0.191017E-18
    0.884437E-01   -0.821383E-03    0.201181E-18
    0.883995E-01   -0.878453E-03    0.215159E-18
    0.883538E-01   -0.954943E-03    0.233894E-18
    0.883069E-01   -0.105388E-02    0.258126E-18
    0.882595E-01   -0.117682E-02    0.288237E-18
    0.882123E-01   -0.132329E-02    0.324112E-18
    0.881661E-01   -0.149040E-02    0.365043E-18
    0.881217E-01   -0.167284E-02    0.409727E-18
    0.880798E-01   -0.186319E-02    0.456350E-18
    0.886106E-01   -0.668703E-03    0.163785E-18
    0.885795E-01   -0.696912E-03    0.170694E-18
    0.885479E-01   -0.736304E-03    0.180343E-18
    0.885157E-01   -0.790868E-03    0.193707E-18
    0.884830E-01   -0.864381E-03    0.211712E-18
    0.884496E-01   -0.959840E-03    0.235093E-18
    0.884153E-01   -0.107882E-02    0.264234E-18
    0.883800E-01   -0.122090E-02    0.299033E-18
    0.883437E-01   -0.138331E-02    0.338814E-18
    0.883061E-01   -0.156091E-02    0.382312E-18
    0.882674E-01   -0.174649E-02    0.427766E-18
    0.886812E-01   -0.601789E-03    0.147396E-18
    0.886573E-01   -0.629606E-03    0.154209E-18
    0.886334E-01   -0.668150E-03    0.163650E-18
    0.886095E-01   -0.721131E-03    0.176626E-18
    0.885853E-01   -0.792062E-03    0.193999E-18
    0.885604E-01   -0.883718E-03    0.216448E-18
    0.885342E-01   -0.997549E-03    0.244329E-18
    0.885063E-01   -0.113315E-02    0.277543E-18
    0.884762E-01   -0.128795E-02    0.315456E-18
    0.884433E-01   -0.145711E-02    0.356890E-18
    0.884074E-01   -0.163394E-02    0.400200E-18
    0.887366E-01   -0.546096E-03    0.133755E-18
    0.887178E-01   -0.573978E-03    0.140584E-18
    0.886993E-01   -0.612024E-03    0.149903E-18
    0.886808E-01   -0.663598E-03    0.162535E-18
    0.886620E-01   -0.731871E-03    0.179257E-18
    0.886423E-01   -0.819340E-03    0.200681E-18
    0.886213E-01   -0.927292E-03    0.227121E-18
    0.885980E-01   -0.105533E-02    0.258481E-18
    0.885720E-01   -0.120107E-02    0.294178E-18
    0.885425E-01   -0.136012E-02    0.333134E-18
    0.885093E-01   -0.152635E-02    0.373847E-18
    0.887789E-01   -0.498683E-03    0.122142E-18
    0.887636E-01   -0.526642E-03    0.128990E-18
    0.887485E-01   -0.564145E-03    0.138176E-18
    0.887334E-01   -0.614203E-03    0.150436E-18
    0.887180E-01   -0.679646E-03    0.166465E-18
    0.887016E-01   -0.762687E-03    0.186804E-18
    0.886837E-01   -0.864449E-03    0.211729E-18
    0.886635E-01   -0.984542E-03    0.241143E-18
    0.886404E-01   -0.112080E-02    0.274516E-18
    0.886137E-01   -0.126923E-02    0.310872E-18
    0.885831E-01   -0.142430E-02    0.348852E-18
    0.888108E-01   -0.457113E-03    0.111960E-18
    0.887977E-01   -0.484996E-03    0.118790E-18
    0.887849E-01   -0.521794E-03    0.127803E-18
    0.887719E-01   -0.570187E-03    0.139655E-18
    0.887585E-01   -0.632684E-03    0.154963E-18
    0.887441E-01   -0.711235E-03    0.174202E-18
    0.887282E-01   -0.806812E-03    0.197612E-18
    0.887100E-01   -0.919035E-03    0.225099E-18
    0.886890E-01   -0.104593E-02    0.256180E-18
    0.886646E-01   -0.118391E-02    0.289975E-18
    0.886365E-01   -0.132799E-02    0.325263E-18
    0.888343E-01   -0.419450E-03    0.102736E-18
    0.888225E-01   -0.447064E-03    0.109499E-18
    0.888107E-01   -0.482989E-03    0.118298E-18
    0.887988E-01   -0.529607E-03    0.129716E-18
    0.887864E-01   -0.589134E-03    0.144296E-18
    0.887731E-01   -0.663283E-03    0.162457E-18
    0.887582E-01   -0.752890E-03    0.184405E-18
    0.887414E-01   -0.857585E-03    0.210048E-18
    0.887219E-01   -0.975577E-03    0.238948E-18
    0.886993E-01   -0.110363E-02    0.270312E-18
    0.886733E-01   -0.123727E-02    0.303044E-18
    0.888497E-01   -0.383844E-03    0.940146E-19
    0.888380E-01   -0.410942E-03    0.100652E-18
    0.888263E-01   -0.445807E-03    0.109191E-18
    0.888142E-01   -0.490559E-03    0.120152E-18
    0.888016E-01   -0.547159E-03    0.134015E-18
    0.887881E-01   -0.617112E-03    0.151149E-18
    0.887733E-01   -0.701136E-03    0.171729E-18
    0.887567E-01   -0.798870E-03    0.195667E-18
    0.887379E-01   -0.908688E-03    0.222564E-18
    0.887165E-01   -0.102768E-02    0.251708E-18
    0.886923E-01   -0.115181E-02    0.282111E-18
    0.888560E-01   -0.347937E-03    0.852200E-19
    0.888432E-01   -0.374062E-03    0.916188E-19
    0.888298E-01   -0.407509E-03    0.998110E-19
    0.888158E-01   -0.450198E-03    0.110267E-18
    0.888011E-01   -0.503900E-03    0.123420E-18
    0.887856E-01   -0.569964E-03    0.139601E-18
    0.887689E-01   -0.649025E-03    0.158965E-18
    0.887509E-01   -0.740744E-03    0.181430E-18
    0.887314E-01   -0.843632E-03    0.206630E-18
    0.887104E-01   -0.955036E-03    0.233916E-18
    0.886876E-01   -0.107129E-02    0.262390E-18
    0.888530E-01   -0.308471E-03    0.755535E-19
    0.888370E-01   -0.332574E-03    0.814571E-19
    0.888197E-01   -0.363700E-03    0.890809E-19
    0.888011E-01   -0.403708E-03    0.988800E-19
    0.887813E-01   -0.454319E-03    0.111276E-18
    0.887604E-01   -0.516855E-03    0.126593E-18
    0.887387E-01   -0.591961E-03    0.144989E-18
    0.887164E-01   -0.679344E-03    0.166391E-18
    0.886940E-01   -0.777608E-03    0.190459E-18
    0.886718E-01   -0.884233E-03    0.216575E-18
    0.886501E-01   -0.995714E-03    0.243880E-18
</DataArray>
</PointData>
<CellData>
<DataArray Name="DP" type="Float64" format="ascii" NumberOfComponents="1">
      0.000000E+0000
      0.000000E+0000
      0.000000E+0000
      0.000000E+0000
      0.000000E+0000
      0.000000E+0000
      0.000000E+0000
      0.000000E+0000
      0.000000E+0000
      0.000000E+0000
      0.000000E+0000
      0.000000E+0000
      0.000000E+0000
      0.000000E+0000
      0.000000E+0000
      0.000000E+0000
      0.000000E+0000
      0.000000E+0000
      0.000000E+0000
      0.000000E+0000
      0.000000E+0000
      0.000000E+0000
      0.000000E+0000
      0.000000E+0000
      0.000000E+0000
      0.000000E+0000
      0.000000E+0000
      0.000000E+0000
      0.000000E+0000
      0.000000E+0000
      0.000000E+0000
      0.000000E+0000
      0.000000E+0000
      0.000000E+0000
      0.000000E+0000
      0.000000E+0000
      0.000000E+0000
      0.000000E+0000
      0.000000E+0000
      0.000000E+0000
      0.000000E+0000
      0.000000E+0000
      0.000000E+0000
      0.000000E+0000
      0.000000E+0000
      0.000000E+0000
      0.000000E+0000
      0.000000E+0000
      0.000000E+0000
      0.000000E+0000
      0.000000E+0000
      0.000000E+0000
      0.000000E+0000
      0.000000E+0000
      0.000000E+0000
      0.000000E+0000
      0.000000E+0000
      0.000000E+0000
      0.000000E+0000
      0.000000E+0000
      0.000000E+0000
      0.000000E+0000
      0.000000E+0000
      0.000000E+0000
      0.000000E+0000
      0.000000E+0000
      0.000000E+0000
      0.000000E+0000
      0.000000E+0000
      0.000000E+0000
      0.000000E+0000
      0.000000E+0000
      0.000000E+0000
      0.000000E+0000
      0.000000E+0000
      0.000000E+0000
      0.000000E+0000
      0.000000E+0000
      0.000000E+0000
      0.000000E+0000
      0.000000E+0000
      0.000000E+0000
      0.000000E+0000
      0.000000E+0000
      0.000000E+0000
      0.000000E+0000
      0.000000E+0000
      0.000000E+0000
      0.000000E+0000
      0.000000E+0000
      0.000000E+0000
      0.000000E+0000
      0.000000E+0000
      0.000000E+0000
      0.000000E+0000
      0.000000E+0000
      0.000000E+0000
      0.000000E+0000
      0.000000E+0000
      0.000000E+0000
</DataArray>
<DataArray Name="P" type="Float64" format="ascii" NumberOfComponents="1">
      0.567113E+0000
      0.563547E+0000
      0.559945E+0000
      0.556308E+0000
      0.552633E+0000
      0.548922E+0000
      0.545173E+0000
      0.541387E+0000
      0.537562E+0000
      0.533700E+0000
      0.567118E+0000
      0.563552E+0000
      0.559949E+0000
      0.556311E+0000
      0.552636E+0000
      0.548924E+0000
      0.545175E+0000
      0.541388E+0000
      0.537563E+0000
      0.533700E+0000
      0.567124E+0000
      0.563556E+0000
      0.559953E+0000
      0.556314E+0000
      0.552639E+0000
      0.548926E+0000
      0.545177E+0000
      0.541390E+0000
      0.537564E+0000
      0.533701E+0000
      0.567129E+0000
      0.563561E+0000
      0.559957E+0000
      0.556318E+0000
      0.552642E+0000
      0.548929E+0000
      0.545179E+0000
      0.541391E+0000
      0.537566E+0000
      0.533702E+0000
      0.567134E+0000
      0.563565E+0000
      0.559961E+0000
      0.556321E+0000
      0.552645E+0000
      0.548932E+0000
      0.545181E+0000
      0.541393E+0000
      0.537568E+0000
      0.533703E+0000
      0.567139E+0000
      0.563570E+0000
      0.559966E+0000
      0.556325E+0000
      0.552648E+0000
      0.548935E+0000
      0.545184E+0000
      0.541396E+0000
      0.537569E+0000
      0.533705E+0000
      0.567143E+0000
      0.563574E+0000
      0.559970E+0000
      0.556329E+0000
      0.552652E+0000
      0.548938E+0000
      0.545187E+0000
      0.541398E+0000
      0.537571E+0000
      0.533707E+0000
      0.567148E+0000
      0.563579E+0000
      0.559973E+0000
      0.556332E+0000
      0.552655E+0000
      0.548941E+0000
      0.545189E+0000
      0.541400E+0000
      0.537573E+0000
      0.533708E+0000
      0.567152E+0000
      0.563583E+0000
      0.559977E+0000
      0.556336E+0000
      0.552658E+0000
      0.548944E+0000
      0.545192E+0000
      0.541403E+0000
      0.537575E+0000
      0.533710E+0000
      0.567156E+0000
      0.563586E+0000
      0.559981E+0000
      0.556339E+0000
      0.552661E+0000
      0.548947E+0000
      0.545195E+0000
      0.541405E+0000
      0.537578E+0000
      0.533712E+0000
</DataArray>
<DataArray Name="RHO" type="Float64" format="ascii" NumberOfComponents="1">
      0.117197E+0001
      0.117197E+0001
      0.117197E+0001
      0.117197E+0001
      0.117197E+0001
      0.117197E+0001
      0.117197E+0001
      0.117197E+0001
      0.117197E+0001
      0.117197E+0001
      0.117197E+0001
      0.117197E+0001
      0.117197E+0001
      0.117197E+0001
      0.117197E+0001
      0.117197E+0001
      0.117197E+0001
      0.117197E+0001
      0.117197E+0001
      0.117197E+0001
      0.117197E+0001
      0.117197E+0001
      0.117197E+0001
      0.117197E+0001
      0.117197E+0001
      0.117197E+0001
      0.117197E+0001
      0.117197E+0001
      0.117197E+0001
      0.117197E+0001
      0.117197E+0001
      0.117197E+0001
      0.117197E+0001
      0.117197E+0001
      0.117197E+0001
      0.117197E+0001
      0.117197E+0001
      0.117197E+0001
      0.117197E+0001
      0.117197E+0001
      0.117197E+0001
      0.117197E+0001
      0.117197E+0001
      0.117197E+0001
      0.117197E+0001
      0.117197E+0001
      0.117197E+0001
      0.117197E+0001
      0.117197E+0001
      0.117197E+0001
      0.117197E+0001
      0.117197E+0001
      0.117197E+0001
      0.117197E+0001
      0.117197E+0001
      0.117197E+0001
      0.117197E+0001
      0.117197E+0001
      0.117197E+0001
      0.117197E+0001
      0.117197E+0001
      0.117197E+0001