<?xml version="1.0"?>
<VTKFile type="StructuredGrid" version="0.1" byte_order="LittleEndian">
<StructuredGrid WholeExtent="          20          30          10          20           0           1">
<Piece Extent="          20          30          10          20           0           1">
<Points>
<DataArray NumberOfComponents="3" type="Float64" format="ascii">
    0.557795E-02    0.264236E-02    0.000000E+00
    0.588705E-02    0.264236E-02    0.000000E+00
    0.619924E-02    0.264236E-02    0.000000E+00
    0.651456E-02    0.264236E-02    0.000000E+00
    0.683303E-02    0.264236E-02    0.000000E+00
    0.715469E-02    0.264236E-02    0.000000E+00
    0.747956E-02    0.264236E-02    0.000000E+00
    0.780768E-02    0.264236E-02    0.000000E+00
    0.813908E-02    0.264236E-02    0.000000E+00
    0.847379E-02    0.264236E-02    0.000000E+00
    0.881185E-02    0.264236E-02    0.000000E+00
    0.557795E-02    0.287841E-02    0.000000E+00
    0.588705E-02    0.287841E-02    0.000000E+00
    0.619924E-02    0.287841E-02    0.000000E+00
    0.651456E-02    0.287841E-02    0.000000E+00
    0.683303E-02    0.287841E-02    0.000000E+00
    0.715469E-02    0.287841E-02    0.000000E+00
    0.747956E-02    0.287841E-02    0.000000E+00
    0.780768E-02    0.287841E-02    0.000000E+00
    0.813908E-02    0.287841E-02    0.000000E+00
    0.847379E-02    0.287841E-02    0.000000E+00
    0.881185E-02    0.287841E-02    0.000000E+00
    0.557795E-02    0.310974E-02    0.000000E+00
    0.588705E-02    0.310974E-02    0.000000E+00
    0.619924E-02    0.310974E-02    0.000000E+00
    0.651456E-02    0.310974E-02    0.000000E+00
    0.683303E-02    0.310974E-02    0.000000E+00
    0.715469E-02    0.310974E-02    0.000000E+00
    0.747956E-02    0.310974E-02    0.000000E+00
    0.780768E-02    0.310974E-02    0.000000E+00
    0.813908E-02    0.310974E-02    0.000000E+00
    0.847379E-02    0.310974E-02    0.000000E+00
    0.881185E-02    0.310974E-02    0.000000E+00
    0.557795E-02    0.333644E-02    0.000000E+00
    0.588705E-02    0.333644E-02    0.000000E+00
    0.619924E-02    0.333644E-02    0.000000E+00
    0.651456E-02    0.333644E-02    0.000000E+00
    0.683303E-02    0.333644E-02    0.000000E+00
    0.715469E-02    0.333644E-02    0.000000E+00
    0.747956E-02    0.333644E-02    0.000000E+00
    0.780768E-02    0.333644E-02    0.000000E+00
    0.813908E-02    0.333644E-02    0.000000E+00
    0.847379E-02    0.333644E-02    0.000000E+00
    0.881185E-02    0.333644E-02    0.000000E+00
    0.557795E-02    0.355861E-02    0.000000E+00
    0.588705E-02    0.355861E-02    0.000000E+00
    0.619924E-02    0.355861E-02    0.000000E+00
    0.651456E-02    0.355861E-02    0.000000E+00
    0.683303E-02    0.355861E-02    0.000000E+00
    0.715469E-02    0.355861E-02    0.000000E+00
    0.747956E-02    0.355861E-02    0.000000E+00
    0.780768E-02    0.355861E-02    0.000000E+00
    0.813908E-02    0.355861E-02    0.000000E+00
    0.847379E-02    0.355861E-02    0.000000E+00
    0.881185E-02    0.355861E-02    0.000000E+00
    0.557795E-02    0.377633E-02    0.000000E+00
    0.588705E-02    0.377633E-02    0.000000E+00
    0.619924E-02    0.377633E-02    0.000000E+00
    0.651456E-02    0.377633E-02    0.000000E+00
    0.683303E-02    0.377633E-02    0.000000E+00
    0.715469E-02    0.377633E-02    0.000000E+00
    0.747956E-02    0.377633E-02    0.000000E+00
    0.780768E-02    0.377633E-02    0.000000E+00
    0.813908E-02    0.377633E-02    0.000000E+00
    0.847379E-02    0.377633E-02    0.000000E+00
    0.881185E-02    0.377633E-02    0.000000E+00
    0.557795E-02    0.398970E-02    0.000000E+00
    0.588705E-02    0.398970E-02    0.000000E+00
    0.619924E-02    0.398970E-02    0.000000E+00
    0.651456E-02    0.398970E-02    0.000000E+00
    0.683303E-02    0.398970E-02    0.000000E+00
    0.715469E-02    0.398970E-02    0.000000E+00
    0.747956E-02    0.398970E-02    0.000000E+00
    0.780768E-02    0.398970E-02    0.000000E+00
    0.813908E-02    0.398970E-02    0.000000E+00
    0.847379E-02    0.398970E-02    0.000000E+00
    0.881185E-02    0.398970E-02    0.000000E+00
    0.557795E-02    0.419881E-02    0.000000E+00
    0.588705E-02    0.419881E-02    0.000000E+00
    0.619924E-02    0.419881E-02    0.000000E+00
    0.651456E-02    0.419881E-02    0.000000E+00
    0.683303E-02    0.419881E-02    0.000000E+00
    0.715469E-02    0.419881E-02    0.000000E+00
    0.747956E-02    0.419881E-02    0.000000E+00
    0.780768E-02    0.419881E-02    0.000000E+00
    0.813908E-02    0.419881E-02    0.000000E+00
    0.847379E-02    0.419881E-02    0.000000E+00
    0.881185E-02    0.419881E-02    0.000000E+00
    0.557795E-02    0.440373E-02    0.000000E+00
    0.588705E-02    0.440373E-02    0.000000E+00
    0.619924E-02    0.440373E-02    0.000000E+00
    0.651456E-02    0.440373E-02    0.000000E+00
    0.683303E-02    0.440373E-02    0.000000E+00
    0.715469E-02    0.440373E-02    0.000000E+00
    0.747956E-02    0.440373E-02    0.000000E+00
    0.780768E-02    0.440373E-02    0.000000E+00
    0.813908E-02    0.440373E-02    0.000000E+00
    0.847379E-02    0.440373E-02    0.000000E+00
    0.881185E-02    0.440373E-02    0.000000E+00
    0.557795E-02    0.460455E-02    0.000000E+00
    0.588705E-02    0.460455E-02    0.000000E+00
    0.619924E-02    0.460455E-02    0.000000E+00
    0.651456E-02    0.460455E-02    0.000000E+00
    0.683303E-02    0.460455E-02    0.000000E+00
    0.715469E-02    0.460455E-02    0.000000E+00
    0.747956E-02    0.460455E-02    0.000000E+00
    0.780768E-02    0.460455E-02    0.000000E+00
    0.813908E-02    0.460455E-02    0.000000E+00
    0.847379E-02    0.460455E-02    0.000000E+00
    0.881185E-02    0.460455E-02    0.000000E+00
    0.557795E-02    0.480136E-02    0.000000E+00
    0.588705E-02    0.480136E-02    0.000000E+00
    0.619924E-02    0.480136E-02    0.000000E+00
    0.651456E-02    0.480136E-02    0.000000E+00
    0.683303E-02    0.480136E-02    0.000000E+00
    0.715469E-02    0.480136E-02    0.000000E+00
    0.747956E-02    0.480136E-02    0.000000E+00
    0.780768E-02    0.480136E-02    0.000000E+00
    0.813908E-02    0.480136E-02    0.000000E+00
    0.847379E-02    0.480136E-02    0.000000E+00
    0.881185E-02    0.480136E-02    0.000000E+00
    0.557795E-02    0.264236E-02    0.160000E-02
    0.588705E-02    0.264236E-02    0.160000E-02
    0.619924E-02    0.264236E-02    0.160000E-02
    0.651456E-02    0.264236E-02    0.160000E-02
    0.683303E-02    0.264236E-02    0.160000E-02
    0.715469E-02    0.264236E-02    0.160000E-02
    0.747956E-02    0.264236E-02    0.160000E-02
    0.780768E-02    0.264236E-02    0.160000E-02
    0.813908E-02    0.264236E-02    0.160000E-02
    0.847379E-02    0.264236E-02    0.160000E-02
    0.881185E-02    0.264236E-02    0.160000E-02
    0.557795E-02    0.287841E-02    0.160000E-02
    0.588705E-02    0.287841E-02    0.160000E-02
    0.619924E-02    0.287841E-02    0.160000E-02
    0.651456E-02    0.287841E-02    0.160000E-02
    0.683303E-02    0.287841E-02    0.160000E-02
    0.715469E-02    0.287841E-02    0.160000E-02
    0.747956E-02    0.287841E-02    0.160000E-02
    0.780768E-02    0.287841E-02    0.160000E-02
    0.813908E-02    0.287841E-02    0.160000E-02
    0.847379E-02    0.287841E-02    0.160000E-02
    0.881185E-02    0.287841E-02    0.160000E-02
    0.557795E-02    0.310974E-02    0.160000E-02
    0.588705E-02    0.310974E-02    0.160000E-02
    0.619924E-02    0.310974E-02    0.160000E-02
    0.651456E-02    0.310974E-02    0.160000E-02
    0.683303E-02    0.310974E-02    0.160000E-02
    0.715469E-02    0.310974E-02    0.160000E-02
    0.747956E-02    0.310974E-02    0.160000E-02
    0.780768E-02    0.310974E-02    0.160000E-02
    0.813908E-02    0.310974E-02    0.160000E-02
    0.847379E-02    0.310974E-02    0.160000E-02
    0.881185E-02    0.310974E-02    0.160000E-02
    0.557795E-02    0.333644E-02    0.160000E-02
    0.588705E-02    0.333644E-02    0.160000E-02
    0.619924E-02    0.333644E-02    0.160000E-02
    0.651456E-02    0.333644E-02    0.160000E-02
    0.683303E-02    0.333644E-02    0.160000E-02
    0.715469E-02    0.333644E-02    0.160000E-02
    0.747956E-02    0.333644E-02    0.160000E-02
    0.780768E-02    0.333644E-02    0.160000E-02
    0.813908E-02    0.333644E-02    0.160000E-02
    0.847379E-02    0.333644E-02    0.160000E-02
    0.881185E-02    0.333644E-02    0.160000E-02
    0.557795E-02    0.355861E-02    0.160000E-02
    0.588705E-02    0.355861E-02    0.160000E-02
    0.619924E-02    0.355861E-02    0.160000E-02
    0.651456E-02    0.355861E-02    0.160000E-02
    0.683303E-02    0.355861E-02    0.160000E-02
    0.715469E-02    0.355861E-02    0.160000E-02
    0.747956E-02    0.355861E-02    0.160000E-02
    0.780768E-02    0.355861E-02    0.160000E-02
    0.813908E-02    0.355861E-02    0.160000E-02
    0.847379E-02    0.355861E-02    0.160000E-02
    0.881185E-02    0.355861E-02    0.160000E-02
    0.557795E-02    0.377633E-02    0.160000E-02
    0.588705E-02    0.377633E-02    0.160000E-02
    0.619924E-02    0.377633E-02    0.160000E-02
    0.651456E-02    0.377633E-02    0.160000E-02
    0.683303E-02    0.377633E-02    0.160000E-02
    0.715469E-02    0.377633E-02    0.160000E-02
    0.747956E-02    0.377633E-02    0.160000E-02
    0.780768E-02    0.377633E-02    0.160000E-02
    0.813908E-02    0.377633E-02    0.160000E-02
    0.847379E-02    0.377633E-02    0.160000E-02
    0.881185E-02    0.377633E-02    0.160000E-02
    0.557795E-02    0.398970E-02    0.160000E-02
    0.588705E-02    0.398970E-02    0.160000E-02
    0.619924E-02    0.398970E-02    0.160000E-02
    0.651456E-02    0.398970E-02    0.160000E-02
    0.683303E-02    0.398970E-02    0.160000E-02
    0.715469E-02    0.398970E-02    0.160000E-02
    0.747956E-02    0.398970E-02    0.160000E-02
    0.780768E-02    0.398970E-02    0.160000E-02
    0.813908E-02    0.398970E-02    0.160000E-02
    0.847379E-02    0.398970E-02    0.160000E-02
    0.881185E-02    0.398970E-02    0.160000E-02
    0.557795E-02    0.419881E-02    0.160000E-02
    0.588705E-02    0.419881E-02    0.160000E-02
    0.619924E-02    0.419881E-02    0.160000E-02
    0.651456E-02    0.419881E-02    0.160000E-02
    0.683303E-02    0.419881E-02    0.160000E-02
    0.715469E-02    0.419881E-02    0.160000E-02
    0.747956E-02    0.419881E-02    0.160000E-02
    0.780768E-02    0.419881E-02    0.160000E-02
    0.813908E-02    0.419881E-02    0.160000E-02
    0.847379E-02    0.419881E-02    0.160000E-02
    0.881185E-02    0.419881E-02    0.160000E-02
    0.557795E-02    0.440373E-02    0.160000E-02
    0.588705E-02    0.440373E-02    0.160000E-02
    0.619924E-02    0.440373E-02    0.160000E-02
    0.651456E-02    0.440373E-02    0.160000E-02
    0.683303E-02    0.440373E-02    0.160000E-02
    0.715469E-02    0.440373E-02    0.160000E-02
    0.747956E-02    0.440373E-02    0.160000E-02
    0.780768E-02    0.440373E-02    0.160000E-02
    0.813908E-02    0.440373E-02    0.160000E-02
    0.847379E-02    0.440373E-02    0.160000E-02
    0.881185E-02    0.440373E-02    0.160000E-02
    0.557795E-02    0.460455E-02    0.160000E-02
    0.588705E-02    0.460455E-02    0.160000E-02
    0.619924E-02    0.460455E-02    0.160000E-02
    0.651456E-02    0.460455E-02    0.160000E-02
    0.683303E-02    0.460455E-02    0.160000E-02
    0.715469E-02    0.460455E-02    0.160000E-02
    0.747956E-02    0.460455E-02    0.160000E-02
    0.780768E-02    0.460455E-02    0.160000E-02
    0.813908E-02    0.460455E-02    0.160000E-02
    0.847379E-02    0.460455E-02    0.160000E-02
    0.881185E-02    0.460455E-02    0.160000E-02
    0.557795E-02    0.480136E-02    0.160000E-02
    0.588705E-02    0.480136E-02    0.160000E-02
    0.619924E-02    0.480136E-02    0.160000E-02
    0.651456E-02    0.480136E-02    0.160000E-02
    0.683303E-02    0.480136E-02    0.160000E-02
    0.715469E-02    0.480136E-02    0.160000E-02
    0.747956E-02    0.480136E-02    0.160000E-02
    0.780768E-02    0.480136E-02    0.160000E-02
    0.813908E-02    0.480136E-02    0.160000E-02
    0.847379E-02    0.480136E-02    0.160000E-02
    0.881185E-02    0.480136E-02    0.160000E-02
</DataArray>
</Points>
<PointData>
<DataArray Name="Velocity" type="Float64" format="ascii" NumberOfComponents="3">
    0.111052E+00   -0.243016E-01    0.000000E+00
    0.115165E+00   -0.237450E-01    0.000000E+00
    0.119177E+00   -0.230890E-01    0.000000E+00
    0.123099E+00   -0.224252E-01    0.000000E+00
    0.126944E+00   -0.217638E-01    0.000000E+00
    0.130726E+00   -0.211108E-01    0.000000E+00
    0.134455E+00   -0.204688E-01    0.000000E+00
    0.138145E+00   -0.198365E-01    0.000000E+00
    0.141803E+00   -0.192086E-01    0.000000E+00
    0.145438E+00   -0.185768E-01    0.000000E+00
    0.149053E+00   -0.179291E-01    0.000000E+00
    0.107275E+00   -0.253263E-01    0.000000E+00
    0.111019E+00   -0.247136E-01    0.000000E+00
    0.114676E+00   -0.240042E-01    0.000000E+00
    0.118260E+00   -0.232987E-01    0.000000E+00
    0.121785E+00   -0.226063E-01    0.000000E+00
    0.125263E+00   -0.219319E-01    0.000000E+00
    0.128709E+00   -0.212769E-01    0.000000E+00
    0.132134E+00   -0.206387E-01    0.000000E+00
    0.135547E+00   -0.200110E-01    0.000000E+00
    0.138955E+00   -0.193840E-01    0.000000E+00
    0.142362E+00   -0.187448E-01    0.000000E+00
    0.102730E+00   -0.260584E-01    0.000000E+00
    0.106066E+00   -0.254065E-01    0.000000E+00
    0.109337E+00   -0.246626E-01    0.000000E+00
    0.112555E+00   -0.239328E-01    0.000000E+00
    0.115736E+00   -0.232254E-01    0.000000E+00
    0.118893E+00   -0.225445E-01    0.000000E+00
    0.122039E+00   -0.218901E-01    0.000000E+00
    0.125183E+00   -0.212585E-01    0.000000E+00
    0.128335E+00   -0.206422E-01    0.000000E+00
    0.131500E+00   -0.200305E-01    0.000000E+00
    0.134683E+00   -0.194096E-01    0.000000E+00
    0.982448E-01   -0.265371E-01    0.000000E+00
    0.101210E+00   -0.258598E-01    0.000000E+00
    0.104128E+00   -0.250973E-01    0.000000E+00
    0.107014E+00   -0.243587E-01    0.000000E+00
    0.109883E+00   -0.236511E-01    0.000000E+00
    0.112746E+00   -0.229773E-01    0.000000E+00
    0.115617E+00   -0.223361E-01    0.000000E+00
    0.118504E+00   -0.217225E-01    0.000000E+00
    0.121416E+00   -0.211283E-01    0.000000E+00
    0.124359E+00   -0.205418E-01    0.000000E+00
    0.127337E+00   -0.199492E-01    0.000000E+00
    0.939162E-01   -0.268038E-01    0.000000E+00
    0.965504E-01   -0.261141E-01    0.000000E+00
    0.991554E-01   -0.253473E-01    0.000000E+00
    0.101746E+00   -0.246135E-01    0.000000E+00
    0.104336E+00   -0.239182E-01    0.000000E+00
    0.106937E+00   -0.232630E-01    0.000000E+00
    0.109561E+00   -0.226454E-01    0.000000E+00
    0.112216E+00   -0.220594E-01    0.000000E+00
    0.114911E+00   -0.214960E-01    0.000000E+00
    0.117650E+00   -0.209432E-01    0.000000E+00
    0.120440E+00   -0.203872E-01    0.000000E+00
    0.898524E-01   -0.268993E-01    0.000000E+00
    0.921951E-01   -0.262090E-01    0.000000E+00
    0.945242E-01   -0.254505E-01    0.000000E+00
    0.968540E-01   -0.247329E-01    0.000000E+00
    0.991972E-01   -0.240602E-01    0.000000E+00
    0.101565E+00   -0.234326E-01    0.000000E+00
    0.103968E+00   -0.228467E-01    0.000000E+00
    0.106414E+00   -0.222955E-01    0.000000E+00
    0.108910E+00   -0.217696E-01    0.000000E+00
    0.111462E+00   -0.212569E-01    0.000000E+00
    0.114081E+00   -0.207431E-01    0.000000E+00
    0.861489E-01   -0.268605E-01    0.000000E+00
    0.882346E-01   -0.261802E-01    0.000000E+00
    0.903206E-01   -0.254405E-01    0.000000E+00
    0.924198E-01   -0.247483E-01    0.000000E+00
    0.945438E-01   -0.241060E-01    0.000000E+00
    0.967028E-01   -0.235127E-01    0.000000E+00
    0.989057E-01   -0.229640E-01    0.000000E+00
    0.101160E+00   -0.224526E-01    0.000000E+00
    0.103473E+00   -0.219687E-01    0.000000E+00
    0.105853E+00   -0.215009E-01    0.000000E+00
    0.108314E+00   -0.210305E-01    0.000000E+00
    0.828753E-01   -0.267189E-01    0.000000E+00
    0.847328E-01   -0.260571E-01    0.000000E+00
    0.866023E-01   -0.253448E-01    0.000000E+00
    0.884954E-01   -0.246849E-01    0.000000E+00
    0.904222E-01   -0.240786E-01    0.000000E+00
    0.923915E-01   -0.235239E-01    0.000000E+00
    0.944112E-01   -0.230160E-01    0.000000E+00
    0.964884E-01   -0.225472E-01    0.000000E+00
    0.986304E-01   -0.221081E-01    0.000000E+00
    0.100847E+00   -0.216864E-01    0.000000E+00
    0.103161E+00   -0.212629E-01    0.000000E+00
    0.800708E-01   -0.264992E-01    0.000000E+00
    0.817227E-01   -0.258631E-01    0.000000E+00
    0.833967E-01   -0.251845E-01    0.000000E+00
    0.851025E-01   -0.245616E-01    0.000000E+00
    0.868488E-01   -0.239947E-01    0.000000E+00
    0.886429E-01   -0.234812E-01    0.000000E+00
    0.904916E-01   -0.230157E-01    0.000000E+00
    0.924017E-01   -0.225909E-01    0.000000E+00
    0.943808E-01   -0.221977E-01    0.000000E+00
    0.964435E-01   -0.218212E-01    0.000000E+00
    0.986093E-01   -0.214437E-01    0.000000E+00
    0.777455E-01   -0.262199E-01    0.000000E+00
    0.792090E-01   -0.256147E-01    0.000000E+00
    0.807032E-01   -0.249744E-01    0.000000E+00
    0.822359E-01   -0.243917E-01    0.000000E+00
    0.838138E-01   -0.238660E-01    0.000000E+00
    0.854431E-01   -0.233945E-01    0.000000E+00
    0.871296E-01   -0.229718E-01    0.000000E+00
    0.888797E-01   -0.225909E-01    0.000000E+00
    0.907019E-01   -0.222425E-01    0.000000E+00
    0.926153E-01   -0.219117E-01    0.000000E+00
    0.946304E-01   -0.215786E-01    0.000000E+00
    0.758850E-01   -0.258937E-01    0.000000E+00
    0.771732E-01   -0.253235E-01    0.000000E+00
    0.784993E-01   -0.247244E-01    0.000000E+00
    0.798691E-01   -0.241834E-01    0.000000E+00
    0.812877E-01   -0.236996E-01    0.000000E+00
    0.827598E-01   -0.232699E-01    0.000000E+00
    0.842903E-01   -0.228893E-01    0.000000E+00
    0.858852E-01   -0.225512E-01    0.000000E+00
    0.875555E-01   -0.222452E-01    0.000000E+00
    0.893183E-01   -0.219577E-01    0.000000E+00
    0.911810E-01   -0.216687E-01    0.000000E+00
    0.111544E+00   -0.243794E-01    0.597123E-17
    0.115709E+00   -0.237450E-01    0.581586E-17
    0.119771E+00   -0.230890E-01    0.565516E-17
    0.123742E+00   -0.224252E-01    0.549259E-17
    0.127634E+00   -0.217638E-01    0.533059E-17
    0.131460E+00   -0.211108E-01    0.517066E-17
    0.135232E+00   -0.204688E-01    0.501341E-17
    0.138960E+00   -0.198365E-01    0.485853E-17
    0.142656E+00   -0.192086E-01    0.470476E-17
    0.146324E+00   -0.185768E-01    0.455000E-17
    0.149968E+00   -0.179291E-01    0.439136E-17
    0.107275E+00   -0.254130E-01    0.622440E-17
    0.111019E+00   -0.247136E-01    0.605308E-17
    0.114676E+00   -0.240042E-01    0.587933E-17
    0.118260E+00   -0.232987E-01    0.570654E-17
    0.121785E+00   -0.226063E-01    0.553693E-17
    0.125263E+00   -0.219319E-01    0.537177E-17
    0.128709E+00   -0.212769E-01    0.521134E-17
    0.132134E+00   -0.206387E-01    0.505502E-17
    0.135547E+00   -0.200110E-01    0.490128E-17
    0.138955E+00   -0.193840E-01    0.474771E-17
    0.142362E+00   -0.187448E-01    0.459115E-17
    0.102730E+00   -0.261517E-01    0.640531E-17
    0.106066E+00   -0.254065E-01    0.622280E-17
    0.109337E+00   -0.246626E-01    0.604060E-17
    0.112555E+00   -0.239328E-01    0.586184E-17
    0.115736E+00   -0.232254E-01    0.568858E-17
    0.118893E+00   -0.225445E-01    0.552181E-17
    0.122039E+00   -0.218901E-01    0.536153E-17
    0.125183E+00   -0.212585E-01    0.520683E-17
    0.128335E+00   -0.206422E-01    0.505588E-17
    0.131500E+00   -0.200305E-01    0.490605E-17
    0.134683E+00   -0.194096E-01    0.475398E-17
    0.982448E-01   -0.266348E-01    0.652365E-17
    0.101210E+00   -0.258598E-01    0.633384E-17
    0.104128E+00   -0.250973E-01    0.614707E-17
    0.107014E+00   -0.243587E-01    0.596617E-17
    0.109883E+00   -0.236511E-01    0.579285E-17
    0.112746E+00   -0.229773E-01    0.562781E-17
    0.115617E+00   -0.223361E-01    0.547076E-17
    0.118504E+00   -0.217225E-01    0.532049E-17
    0.121416E+00   -0.211283E-01    0.517494E-17
    0.124359E+00   -0.205418E-01    0.503128E-17
    0.127337E+00   -0.199492E-01    0.488614E-17
    0.939162E-01   -0.269041E-01    0.658961E-17
    0.965504E-01   -0.261141E-01    0.639612E-17
    0.991554E-01   -0.253473E-01    0.620830E-17
    0.101746E+00   -0.246135E-01    0.602857E-17
    0.104336E+00   -0.239182E-01    0.585828E-17
    0.106937E+00   -0.232630E-01    0.569779E-17
    0.109561E+00   -0.226454E-01    0.554652E-17
    0.112216E+00   -0.220594E-01    0.540300E-17
    0.114911E+00   -0.214960E-01    0.526500E-17
    0.117650E+00   -0.209432E-01    0.512959E-17
    0.120440E+00   -0.203872E-01    0.499342E-17
    0.898524E-01   -0.270004E-01    0.661320E-17
    0.921951E-01   -0.262090E-01    0.641936E-17
    0.945242E-01   -0.254505E-01    0.623357E-17
    0.968540E-01   -0.247329E-01    0.605781E-17
    0.991972E-01   -0.240602E-01    0.589306E-17
    0.101565E+00   -0.234326E-01    0.573934E-17
    0.103968E+00   -0.228467E-01    0.559582E-17
    0.106414E+00   -0.222955E-01    0.546083E-17
    0.108910E+00   -0.217696E-01    0.533200E-17
    0.111462E+00   -0.212569E-01    0.520645E-17
    0.114081E+00   -0.207431E-01    0.508060E-17
    0.861489E-01   -0.269609E-01    0.660352E-17
    0.882346E-01   -0.261802E-01    0.641229E-17
    0.903206E-01   -0.254405E-01    0.623112E-17
    0.924198E-01   -0.247483E-01    0.606158E-17
    0.945438E-01   -0.241060E-01    0.590427E-17
    0.967028E-01   -0.235127E-01    0.575895E-17
    0.989057E-01   -0.229640E-01    0.562456E-17
    0.101160E+00   -0.224526E-01    0.549930E-17
    0.103473E+00   -0.219687E-01    0.538078E-17
    0.105853E+00   -0.215009E-01    0.526621E-17
    0.108314E+00   -0.210305E-01    0.515099E-17
    0.828753E-01   -0.268172E-01    0.656831E-17
    0.847328E-01   -0.260571E-01    0.638216E-17
    0.866023E-01   -0.253448E-01    0.620769E-17
    0.884954E-01   -0.246849E-01    0.604605E-17
    0.904222E-01   -0.240786E-01    0.589755E-17
    0.923915E-01   -0.235239E-01    0.576169E-17
    0.944112E-01   -0.230160E-01    0.563729E-17
    0.964884E-01   -0.225472E-01    0.552248E-17
    0.986304E-01   -0.221081E-01    0.541492E-17
    0.100847E+00   -0.216864E-01    0.531164E-17
    0.103161E+00   -0.212629E-01    0.520790E-17
    0.800708E-01   -0.265942E-01    0.651370E-17
    0.817227E-01   -0.258631E-01    0.633463E-17
    0.833967E-01   -0.251845E-01    0.616842E-17
    0.851025E-01   -0.245616E-01    0.601586E-17
    0.868488E-01   -0.239947E-01    0.587702E-17
    0.886429E-01   -0.234812E-01    0.575123E-17
    0.904916E-01   -0.230157E-01    0.563723E-17
    0.924017E-01   -0.225909E-01    0.553318E-17
    0.943808E-01   -0.221977E-01    0.543687E-17
    0.964435E-01   -0.218212E-01    0.534465E-17
    0.986093E-01   -0.214437E-01    0.525219E-17
    0.777455E-01   -0.263106E-01    0.644425E-17
    0.792090E-01   -0.256147E-01    0.627380E-17
    0.807032E-01   -0.249744E-01    0.611695E-17
    0.822359E-01   -0.243917E-01    0.597423E-17
    0.838138E-01   -0.238660E-01    0.584549E-17
    0.854431E-01   -0.233945E-01    0.573000E-17
    0.871296E-01   -0.229718E-01    0.562647E-17
    0.888797E-01   -0.225909E-01    0.553317E-17
    0.907019E-01   -0.222425E-01    0.544784E-17
    0.926153E-01   -0.219117E-01    0.536682E-17
    0.946304E-01   -0.215786E-01    0.528524E-17
    0.758850E-01   -0.259796E-01    0.636317E-17
    0.771732E-01   -0.253235E-01    0.620247E-17
    0.784993E-01   -0.247244E-01    0.605572E-17
    0.798691E-01   -0.241834E-01    0.592323E-17
    0.812877E-01   -0.236996E-01    0.580474E-17
    0.827598E-01   -0.232699E-01    0.569948E-17
    0.842903E-01   -0.228893E-01    0.560626E-17
    0.858852E-01   -0.225512E-01    0.552346E-17
    0.875555E-01   -0.222452E-01    0.544850E-17
    0.893183E-01   -0.219577E-01    0.537808E-17
    0.911810E-01   -0.216687E-01    0.530729E-17
</DataArray>
</PointData>
<CellData>
<DataArray Name="DP" type="Float64" format="ascii" NumberOfComponents="1">
      0.000000E+0000
      0.000000E+0000
      0.000000E+0000
      0.000000E+0000
      0.000000E+0000
      0.000000E+0000
      0.000000E+0000
      0.000000E+0000
      0.000000E+0000
      0.000000E+0000
      0.000000E+0000
      0.000000E+0000
      0.000000E+0000
      0.000000E+0000
      0.000000E+0000
      0.000000E+0000
      0.000000E+0000
      0.000000E+0000
      0.000000E+0000
      0.000000E+0000
      0.000000E+0000
      0.000000E+0000
      0.000000E+0000
      0.000000E+0000
      0.000000E+0000
      0.000000E+0000
      0.000000E+0000
      0.000000E+0000
      0.000000E+0000
      0.000000E+0000
      0.000000E+0000
      0.000000E+0000
      0.000000E+0000
      0.000000E+0000
      0.000000E+0000
      0.000000E+0000
      0.000000E+0000
      0.000000E+0000
      0.000000E+0000
      0.000000E+0000
      0.000000E+0000
      0.000000E+0000
      0.000000E+0000
      0.000000E+0000
      0.000000E+0000
      0.000000E+0000
      0.000000E+0000
      0.000000E+0000
      0.000000E+0000
      0.000000E+0000
      0.000000E+0000
      0.000000E+0000
      0.000000E+0000
      0.000000E+0000
      0.000000E+0000
      0.000000E+0000
      0.000000E+0000
      0.000000E+0000
      0.000000E+0000
      0.000000E+0000
      0.000000E+0000
      0.000000E+0000
      0.000000E+0000
      0.000000E+0000
      0.000000E+0000
      0.000000E+0000
      0.000000E+0000
      0.000000E+0000
      0.000000E+0000
      0.000000E+0000
      0.000000E+0000
      0.000000E+0000
      0.000000E+0000
      0.000000E+0000
      0.000000E+0000
      0.000000E+0000
      0.000000E+0000
      0.000000E+0000
      0.000000E+0000
      0.000000E+0000
      0.000000E+0000
      0.000000E+0000
      0.000000E+0000
      0.000000E+0000
      0.000000E+0000
      0.000000E+0000
      0.000000E+0000
      0.000000E+0000
      0.000000E+0000
      0.000000E+0000
      0.000000E+0000
      0.000000E+0000
      0.000000E+0000
      0.000000E+0000
      0.000000E+0000
      0.000000E+0000
      0.000000E+0000
      0.000000E+0000
      0.000000E+0000
      0.000000E+0000
</DataArray>
<DataArray Name="P" type="Float64" format="ascii" NumberOfComponents="1">
      0.566773E+0000
      0.563269E+0000
      0.559704E+0000
      0.556078E+0000
      0.552394E+0000
      0.548653E+0000
      0.544856E+0000
      0.541005E+0000
      0.537100E+0000
      0.533143E+0000
      0.566711E+0000
      0.563205E+0000
      0.559638E+0000
      0.556013E+0000
      0.552330E+0000
      0.548591E+0000
      0.544796E+0000
      0.540948E+0000
      0.537046E+0000
      0.533092E+0000
      0.566652E+0000
      0.563143E+0000
      0.559576E+0000
      0.555951E+0000
      0.552269E+0000
      0.548532E+0000
      0.544740E+0000
      0.540894E+0000
      0.536995E+0000
      0.533045E+0000
      0.566595E+0000
      0.563085E+0000
      0.559517E+0000
      0.555892E+0000
      0.552212E+0000
      0.548477E+0000
      0.544687E+0000
      0.540844E+0000
      0.536949E+0000
      0.533001E+0000
      0.566541E+0000
      0.563029E+0000
      0.559461E+0000
      0.555837E+0000
      0.552158E+0000
      0.548425E+0000
      0.544638E+0000
      0.540798E+0000
      0.536905E+0000
      0.532960E+0000
      0.566490E+0000
      0.562977E+0000
      0.559408E+0000
      0.555785E+0000
      0.552108E+0000
      0.548377E+0000
      0.544593E+0000
      0.540755E+0000
      0.536865E+0000
      0.532924E+0000
      0.566441E+0000
      0.562927E+0000
      0.559359E+0000
      0.555736E+0000
      0.552061E+0000
      0.548332E+0000
      0.544551E+0000
      0.540716E+0000
      0.536829E+0000
      0.532891E+0000
      0.566396E+0000
      0.562881E+0000
      0.559313E+0000
      0.555691E+0000
      0.552017E+0000
      0.548291E+0000
      0.544512E+0000
      0.540681E+0000
      0.536797E+0000
      0.532863E+0000
      0.566353E+0000
      0.562838E+0000
      0.559270E+0000
      0.555650E+0000
      0.551978E+0000
      0.548254E+0000
      0.544478E+0000
      0.540649E+0000
      0.536768E+0000
      0.532837E+0000
      0.566314E+0000
      0.562798E+0000
      0.559231E+0000
      0.555612E+0000
      0.551942E+0000
      0.548221E+0000
      0.544447E+0000
      0.540621E+0000
      0.536744E+0000
      0.532815E+0000
</DataArray>
<DataArray Name="RHO" type="Float64" format="ascii" NumberOfComponents="1">
      0.952620E+0000
      0.958006E+0000
      0.963089E+0000
      0.967855E+0000
      0.972292E+0000
      0.976401E+0000
      0.980167E+0000
      0.983586E+0000
      0.986657E+0000
      0.989381E+0000
      0.969671E+0000
      0.975461E+0000
      0.980872E+0000
      0.985889E+0000
      0.990507E+0000
      0.994726E+0000
      0.998545E+0000
      0.100197E+0001
      0.100500E+0001
      0.100764E+0001
      0.987882E+0000
      0.993930E+0000
      0.999515E+0000
      0.100464E+0001
      0.100929E+0001
      0.101349E+0001
      0.101725E+0001
      0.102057E+0001
      0.102347E+0001
      0.102596E+0001
      0.100674E+0001
      0.101286E+0001
      0.101845E+0001
      0.102351E+0001
      0.102806E+0001
      0.103212E+0001
      0.103570E+0001
      0.103883E+0001
      0.104152E+0001
      0.104380E+0001
      0.102567E+0001
      0.103167E+0001
      0.103709E+0001
      0.104194E+0001
      0.104626E+0001
      0.105006E+0001
      0.105338E+0001
      0.105624E+0001
      0.105867E+0001
      0.106069E+0001
      0.104412E+0001
      0.104982E+0001
      0.105491E+0001
      0.105942E+0001
      0.106340E+0001
      0.106686E+0001
      0.106986E+0001
      0.107241E+0001
      0.107454E+0001
      0.107627E+0001
      0.106158E+0001
      0.106684E+0001