<?xml version="1.0"?>
<VTKFile type="StructuredGrid" version="0.1" byte_order="LittleEndian">
<StructuredGrid WholeExtent="          20          30          50          60           0           1">
<Piece Extent="          20          30          50          60           0           1">
<Points>
<DataArray NumberOfComponents="3" type="Float64" format="ascii">
    0.557795E-02    0.123834E-01    0.000000E+00
    0.588705E-02    0.123834E-01    0.000000E+00
    0.619924E-02    0.123834E-01    0.000000E+00
    0.651456E-02    0.123834E-01    0.000000E+00
    0.683303E-02    0.123834E-01    0.000000E+00
    0.715469E-02    0.123834E-01    0.000000E+00
    0.747956E-02    0.123834E-01    0.000000E+00
    0.780768E-02    0.123834E-01    0.000000E+00
    0.813908E-02    0.123834E-01    0.000000E+00
    0.847379E-02    0.123834E-01    0.000000E+00
    0.881185E-02    0.123834E-01    0.000000E+00
    0.557795E-02    0.127657E-01    0.000000E+00
    0.588705E-02    0.127657E-01    0.000000E+00
    0.619924E-02    0.127657E-01    0.000000E+00
    0.651456E-02    0.127657E-01    0.000000E+00
    0.683303E-02    0.127657E-01    0.000000E+00
    0.715469E-02    0.127657E-01    0.000000E+00
    0.747956E-02    0.127657E-01    0.000000E+00
    0.780768E-02    0.127657E-01    0.000000E+00
    0.813908E-02    0.127657E-01    0.000000E+00
    0.847379E-02    0.127657E-01    0.000000E+00
    0.881185E-02    0.127657E-01    0.000000E+00
    0.557795E-02    0.131594E-01    0.000000E+00
    0.588705E-02    0.131594E-01    0.000000E+00
    0.619924E-02    0.131594E-01    0.000000E+00
    0.651456E-02    0.131594E-01    0.000000E+00
    0.683303E-02    0.131594E-01    0.000000E+00
    0.715469E-02    0.131594E-01    0.000000E+00
    0.747956E-02    0.131594E-01    0.000000E+00
    0.780768E-02    0.131594E-01    0.000000E+00
    0.813908E-02    0.131594E-01    0.000000E+00
    0.847379E-02    0.131594E-01    0.000000E+00
    0.881185E-02    0.131594E-01    0.000000E+00
    0.557795E-02    0.135649E-01    0.000000E+00
    0.588705E-02    0.135649E-01    0.000000E+00
    0.619924E-02    0.135649E-01    0.000000E+00
    0.651456E-02    0.135649E-01    0.000000E+00
    0.683303E-02    0.135649E-01    0.000000E+00
    0.715469E-02    0.135649E-01    0.000000E+00
    0.747956E-02    0.135649E-01    0.000000E+00
    0.780768E-02    0.135649E-01    0.000000E+00
    0.813908E-02    0.135649E-01    0.000000E+00
    0.847379E-02    0.135649E-01    0.000000E+00
    0.881185E-02    0.135649E-01    0.000000E+00
    0.557795E-02    0.139826E-01    0.000000E+00
    0.588705E-02    0.139826E-01    0.000000E+00
    0.619924E-02    0.139826E-01    0.000000E+00
    0.651456E-02    0.139826E-01    0.000000E+00
    0.683303E-02    0.139826E-01    0.000000E+00
    0.715469E-02    0.139826E-01    0.000000E+00
    0.747956E-02    0.139826E-01    0.000000E+00
    0.780768E-02    0.139826E-01    0.000000E+00
    0.813908E-02    0.139826E-01    0.000000E+00
    0.847379E-02    0.139826E-01    0.000000E+00
    0.881185E-02    0.139826E-01    0.000000E+00
    0.557795E-02    0.144128E-01    0.000000E+00
    0.588705E-02    0.144128E-01    0.000000E+00
    0.619924E-02    0.144128E-01    0.000000E+00
    0.651456E-02    0.144128E-01    0.000000E+00
    0.683303E-02    0.144128E-01    0.000000E+00
    0.715469E-02    0.144128E-01    0.000000E+00
    0.747956E-02    0.144128E-01    0.000000E+00
    0.780768E-02    0.144128E-01    0.000000E+00
    0.813908E-02    0.144128E-01    0.000000E+00
    0.847379E-02    0.144128E-01    0.000000E+00
    0.881185E-02    0.144128E-01    0.000000E+00
    0.557795E-02    0.148560E-01    0.000000E+00
    0.588705E-02    0.148560E-01    0.000000E+00
    0.619924E-02    0.148560E-01    0.000000E+00
    0.651456E-02    0.148560E-01    0.000000E+00
    0.683303E-02    0.148560E-01    0.000000E+00
    0.715469E-02    0.148560E-01    0.000000E+00
    0.747956E-02    0.148560E-01    0.000000E+00
    0.780768E-02    0.148560E-01    0.000000E+00
    0.813908E-02    0.148560E-01    0.000000E+00
    0.847379E-02    0.148560E-01    0.000000E+00
    0.881185E-02    0.148560E-01    0.000000E+00
    0.557795E-02    0.153124E-01    0.000000E+00
    0.588705E-02    0.153124E-01    0.000000E+00
    0.619924E-02    0.153124E-01    0.000000E+00
    0.651456E-02    0.153124E-01    0.000000E+00
    0.683303E-02    0.153124E-01    0.000000E+00
    0.715469E-02    0.153124E-01    0.000000E+00
    0.747956E-02    0.153124E-01    0.000000E+00
    0.780768E-02    0.153124E-01    0.000000E+00
    0.813908E-02    0.153124E-01    0.000000E+00
    0.847379E-02    0.153124E-01    0.000000E+00
    0.881185E-02    0.153124E-01    0.000000E+00
    0.557795E-02    0.157825E-01    0.000000E+00
    0.588705E-02    0.157825E-01    0.000000E+00
    0.619924E-02    0.157825E-01    0.000000E+00
    0.651456E-02    0.157825E-01    0.000000E+00
    0.683303E-02    0.157825E-01    0.000000E+00
    0.715469E-02    0.157825E-01    0.000000E+00
    0.747956E-02    0.157825E-01    0.000000E+00
    0.780768E-02    0.157825E-01    0.000000E+00
    0.813908E-02    0.157825E-01    0.000000E+00
    0.847379E-02    0.157825E-01    0.000000E+00
    0.881185E-02    0.157825E-01    0.000000E+00
    0.557795E-02    0.162667E-01    0.000000E+00
    0.588705E-02    0.162667E-01    0.000000E+00
    0.619924E-02    0.162667E-01    0.000000E+00
    0.651456E-02    0.162667E-01    0.000000E+00
    0.683303E-02    0.162667E-01    0.000000E+00
    0.715469E-02    0.162667E-01    0.000000E+00
    0.747956E-02    0.162667E-01    0.000000E+00
    0.780768E-02    0.162667E-01    0.000000E+00
    0.813908E-02    0.162667E-01    0.000000E+00
    0.847379E-02    0.162667E-01    0.000000E+00
    0.881185E-02    0.162667E-01    0.000000E+00
    0.557795E-02    0.167655E-01    0.000000E+00
    0.588705E-02    0.167655E-01    0.000000E+00
    0.619924E-02    0.167655E-01    0.000000E+00
    0.651456E-02    0.167655E-01    0.000000E+00
    0.683303E-02    0.167655E-01    0.000000E+00
    0.715469E-02    0.167655E-01    0.000000E+00
    0.747956E-02    0.167655E-01    0.000000E+00
    0.780768E-02    0.167655E-01    0.000000E+00
    0.813908E-02    0.167655E-01    0.000000E+00
    0.847379E-02    0.167655E-01    0.000000E+00
    0.881185E-02    0.167655E-01    0.000000E+00
    0.557795E-02    0.123834E-01    0.160000E-02
    0.588705E-02    0.123834E-01    0.160000E-02
    0.619924E-02    0.123834E-01    0.160000E-02
    0.651456E-02    0.123834E-01    0.160000E-02
    0.683303E-02    0.123834E-01    0.160000E-02
    0.715469E-02    0.123834E-01    0.160000E-02
    0.747956E-02    0.123834E-01    0.160000E-02
    0.780768E-02    0.123834E-01    0.160000E-02
    0.813908E-02    0.123834E-01    0.160000E-02
    0.847379E-02    0.123834E-01    0.160000E-02
    0.881185E-02    0.123834E-01    0.160000E-02
    0.557795E-02    0.127657E-01    0.160000E-02
    0.588705E-02    0.127657E-01    0.160000E-02
    0.619924E-02    0.127657E-01    0.160000E-02
    0.651456E-02    0.127657E-01    0.160000E-02
    0.683303E-02    0.127657E-01    0.160000E-02
    0.715469E-02    0.127657E-01    0.160000E-02
    0.747956E-02    0.127657E-01    0.160000E-02
    0.780768E-02    0.127657E-01    0.160000E-02
    0.813908E-02    0.127657E-01    0.160000E-02
    0.847379E-02    0.127657E-01    0.160000E-02
    0.881185E-02    0.127657E-01    0.160000E-02
    0.557795E-02    0.131594E-01    0.160000E-02
    0.588705E-02    0.131594E-01    0.160000E-02
    0.619924E-02    0.131594E-01    0.160000E-02
    0.651456E-02    0.131594E-01    0.160000E-02
    0.683303E-02    0.131594E-01    0.160000E-02
    0.715469E-02    0.131594E-01    0.160000E-02
    0.747956E-02    0.131594E-01    0.160000E-02
    0.780768E-02    0.131594E-01    0.160000E-02
    0.813908E-02    0.131594E-01    0.160000E-02
    0.847379E-02    0.131594E-01    0.160000E-02
    0.881185E-02    0.131594E-01    0.160000E-02
    0.557795E-02    0.135649E-01    0.160000E-02
    0.588705E-02    0.135649E-01    0.160000E-02
    0.619924E-02    0.135649E-01    0.160000E-02
    0.651456E-02    0.135649E-01    0.160000E-02
    0.683303E-02    0.135649E-01    0.160000E-02
    0.715469E-02    0.135649E-01    0.160000E-02
    0.747956E-02    0.135649E-01    0.160000E-02
    0.780768E-02    0.135649E-01    0.160000E-02
    0.813908E-02    0.135649E-01    0.160000E-02
    0.847379E-02    0.135649E-01    0.160000E-02
    0.881185E-02    0.135649E-01    0.160000E-02
    0.557795E-02    0.139826E-01    0.160000E-02
    0.588705E-02    0.139826E-01    0.160000E-02
    0.619924E-02    0.139826E-01    0.160000E-02
    0.651456E-02    0.139826E-01    0.160000E-02
    0.683303E-02    0.139826E-01    0.160000E-02
    0.715469E-02    0.139826E-01    0.160000E-02
    0.747956E-02    0.139826E-01    0.160000E-02
    0.780768E-02    0.139826E-01    0.160000E-02
    0.813908E-02    0.139826E-01    0.160000E-02
    0.847379E-02    0.139826E-01    0.160000E-02
    0.881185E-02    0.139826E-01    0.160000E-02
    0.557795E-02    0.144128E-01    0.160000E-02
    0.588705E-02    0.144128E-01    0.160000E-02
    0.619924E-02    0.144128E-01    0.160000E-02
    0.651456E-02    0.144128E-01    0.160000E-02
    0.683303E-02    0.144128E-01    0.160000E-02
    0.715469E-02    0.144128E-01    0.160000E-02
    0.747956E-02    0.144128E-01    0.160000E-02
    0.780768E-02    0.144128E-01    0.160000E-02
    0.813908E-02    0.144128E-01    0.160000E-02
    0.847379E-02    0.144128E-01    0.160000E-02
    0.881185E-02    0.144128E-01    0.160000E-02
    0.557795E-02    0.148560E-01    0.160000E-02
    0.588705E-02    0.148560E-01    0.160000E-02
    0.619924E-02    0.148560E-01    0.160000E-02
    0.651456E-02    0.148560E-01    0.160000E-02
    0.683303E-02    0.148560E-01    0.160000E-02
    0.715469E-02    0.148560E-01    0.160000E-02
    0.747956E-02    0.148560E-01    0.160000E-02
    0.780768E-02    0.148560E-01    0.160000E-02
    0.813908E-02    0.148560E-01    0.160000E-02
    0.847379E-02    0.148560E-01    0.160000E-02
    0.881185E-02    0.148560E-01    0.160000E-02
    0.557795E-02    0.153124E-01    0.160000E-02
    0.588705E-02    0.153124E-01    0.160000E-02
    0.619924E-02    0.153124E-01    0.160000E-02
    0.651456E-02    0.153124E-01    0.160000E-02
    0.683303E-02    0.153124E-01    0.160000E-02
    0.715469E-02    0.153124E-01    0.160000E-02
    0.747956E-02    0.153124E-01    0.160000E-02
    0.780768E-02    0.153124E-01    0.160000E-02
    0.813908E-02    0.153124E-01    0.160000E-02
    0.847379E-02    0.153124E-01    0.160000E-02
    0.881185E-02    0.153124E-01    0.160000E-02
    0.557795E-02    0.157825E-01    0.160000E-02
    0.588705E-02    0.157825E-01    0.160000E-02
    0.619924E-02    0.157825E-01    0.160000E-02
    0.651456E-02    0.157825E-01    0.160000E-02
    0.683303E-02    0.157825E-01    0.160000E-02
    0.715469E-02    0.157825E-01    0.160000E-02
    0.747956E-02    0.157825E-01    0.160000E-02
    0.780768E-02    0.157825E-01    0.160000E-02
    0.813908E-02    0.157825E-01    0.160000E-02
    0.847379E-02    0.157825E-01    0.160000E-02
    0.881185E-02    0.157825E-01    0.160000E-02
    0.557795E-02    0.162667E-01    0.160000E-02
    0.588705E-02    0.162667E-01    0.160000E-02
    0.619924E-02    0.162667E-01    0.160000E-02
    0.651456E-02    0.162667E-01    0.160000E-02
    0.683303E-02    0.162667E-01    0.160000E-02
    0.715469E-02    0.162667E-01    0.160000E-02
    0.747956E-02    0.162667E-01    0.160000E-02
    0.780768E-02    0.162667E-01    0.160000E-02
    0.813908E-02    0.162667E-01    0.160000E-02
    0.847379E-02    0.162667E-01    0.160000E-02
    0.881185E-02    0.162667E-01    0.160000E-02
    0.557795E-02    0.167655E-01    0.160000E-02
    0.588705E-02    0.167655E-01    0.160000E-02
    0.619924E-02    0.167655E-01    0.160000E-02
    0.651456E-02    0.167655E-01    0.160000E-02
    0.683303E-02    0.167655E-01    0.160000E-02
    0.715469E-02    0.167655E-01    0.160000E-02
    0.747956E-02    0.167655E-01    0.160000E-02
    0.780768E-02    0.167655E-01    0.160000E-02
    0.813908E-02    0.167655E-01    0.160000E-02
    0.847379E-02    0.167655E-01    0.160000E-02
    0.881185E-02    0.167655E-01    0.160000E-02
</DataArray>
</Points>
<PointData>
<DataArray Name="Velocity" type="Float64" format="ascii" NumberOfComponents="3">
    0.863222E-01   -0.635944E-02    0.000000E+00
    0.861339E-01   -0.655567E-02    0.000000E+00
    0.859466E-01   -0.676977E-02    0.000000E+00
    0.857608E-01   -0.697289E-02    0.000000E+00
    0.855767E-01   -0.716520E-02    0.000000E+00
    0.853945E-01   -0.734686E-02    0.000000E+00
    0.852141E-01   -0.751802E-02    0.000000E+00
    0.850353E-01   -0.767877E-02    0.000000E+00
    0.848578E-01   -0.782915E-02    0.000000E+00
    0.846810E-01   -0.796910E-02    0.000000E+00
    0.845042E-01   -0.809848E-02    0.000000E+00
    0.865838E-01   -0.594933E-02    0.000000E+00
    0.864081E-01   -0.614182E-02    0.000000E+00
    0.862321E-01   -0.635241E-02    0.000000E+00
    0.860563E-01   -0.655271E-02    0.000000E+00
    0.858808E-01   -0.674269E-02    0.000000E+00
    0.857059E-01   -0.692234E-02    0.000000E+00
    0.855313E-01   -0.709161E-02    0.000000E+00
    0.853570E-01   -0.725045E-02    0.000000E+00
    0.851826E-01   -0.739871E-02    0.000000E+00
    0.850077E-01   -0.753619E-02    0.000000E+00
    0.848316E-01   -0.766260E-02    0.000000E+00
    0.869562E-01   -0.555574E-02    0.000000E+00
    0.867897E-01   -0.574316E-02    0.000000E+00
    0.866215E-01   -0.594867E-02    0.000000E+00
    0.864521E-01   -0.614451E-02    0.000000E+00
    0.862817E-01   -0.633052E-02    0.000000E+00
    0.861103E-01   -0.650651E-02    0.000000E+00
    0.859378E-01   -0.667230E-02    0.000000E+00
    0.857642E-01   -0.682767E-02    0.000000E+00
    0.855891E-01   -0.697235E-02    0.000000E+00
    0.854122E-01   -0.710600E-02    0.000000E+00
    0.852330E-01   -0.722821E-02    0.000000E+00
    0.872606E-01   -0.518168E-02    0.000000E+00
    0.871051E-01   -0.536258E-02    0.000000E+00
    0.869468E-01   -0.556134E-02    0.000000E+00
    0.867859E-01   -0.575104E-02    0.000000E+00
    0.866227E-01   -0.593138E-02    0.000000E+00
    0.864571E-01   -0.610207E-02    0.000000E+00
    0.862892E-01   -0.626278E-02    0.000000E+00
    0.861189E-01   -0.641318E-02    0.000000E+00
    0.859459E-01   -0.655287E-02    0.000000E+00
    0.857699E-01   -0.668142E-02    0.000000E+00
    0.855906E-01   -0.679832E-02    0.000000E+00
    0.875021E-01   -0.482910E-02    0.000000E+00
    0.873586E-01   -0.500218E-02    0.000000E+00
    0.872113E-01   -0.519264E-02    0.000000E+00
    0.870603E-01   -0.537464E-02    0.000000E+00
    0.869058E-01   -0.554779E-02    0.000000E+00
    0.867479E-01   -0.571168E-02    0.000000E+00
    0.865867E-01   -0.586588E-02    0.000000E+00
    0.864219E-01   -0.600997E-02    0.000000E+00
    0.862536E-01   -0.614346E-02    0.000000E+00
    0.860814E-01   -0.626583E-02    0.000000E+00
    0.859051E-01   -0.637651E-02    0.000000E+00
    0.876909E-01   -0.449828E-02    0.000000E+00
    0.875590E-01   -0.466255E-02    0.000000E+00
    0.874227E-01   -0.484353E-02    0.000000E+00
    0.872819E-01   -0.501662E-02    0.000000E+00
    0.871369E-01   -0.518137E-02    0.000000E+00
    0.869877E-01   -0.533728E-02    0.000000E+00
    0.868345E-01   -0.548386E-02    0.000000E+00
    0.866770E-01   -0.562060E-02    0.000000E+00
    0.865153E-01   -0.574696E-02    0.000000E+00
    0.863491E-01   -0.586235E-02    0.000000E+00
    0.861784E-01   -0.596614E-02    0.000000E+00
    0.878366E-01   -0.418802E-02    0.000000E+00
    0.877153E-01   -0.434290E-02    0.000000E+00
    0.875891E-01   -0.451367E-02    0.000000E+00
    0.874582E-01   -0.467711E-02    0.000000E+00
    0.873227E-01   -0.483269E-02    0.000000E+00
    0.871826E-01   -0.497988E-02    0.000000E+00
    0.870380E-01   -0.511812E-02    0.000000E+00
    0.868888E-01   -0.524687E-02    0.000000E+00
    0.867351E-01   -0.536553E-02    0.000000E+00
    0.865768E-01   -0.547349E-02    0.000000E+00
    0.864137E-01   -0.557008E-02    0.000000E+00
    0.879459E-01   -0.389627E-02    0.000000E+00
    0.878339E-01   -0.404160E-02    0.000000E+00
    0.877169E-01   -0.420195E-02    0.000000E+00
    0.875952E-01   -0.435547E-02    0.000000E+00
    0.874688E-01   -0.450160E-02    0.000000E+00
    0.873377E-01   -0.463979E-02    0.000000E+00
    0.872022E-01   -0.476945E-02    0.000000E+00
    0.870620E-01   -0.489000E-02    0.000000E+00
    0.869174E-01   -0.500082E-02    0.000000E+00
    0.867681E-01   -0.510128E-02    0.000000E+00
    0.866143E-01   -0.519071E-02    0.000000E+00
    0.880211E-01   -0.362095E-02    0.000000E+00
    0.879172E-01   -0.375701E-02    0.000000E+00
    0.878087E-01   -0.390720E-02    0.000000E+00
    0.876958E-01   -0.405102E-02    0.000000E+00
    0.875784E-01   -0.418791E-02    0.000000E+00
    0.874567E-01   -0.431728E-02    0.000000E+00
    0.873307E-01   -0.443856E-02    0.000000E+00
    0.872004E-01   -0.455112E-02    0.000000E+00
    0.870659E-01   -0.465436E-02    0.000000E+00
    0.869271E-01   -0.474762E-02    0.000000E+00
    0.867840E-01   -0.483025E-02    0.000000E+00
    0.880604E-01   -0.336110E-02    0.000000E+00
    0.879648E-01   -0.348851E-02    0.000000E+00
    0.878651E-01   -0.362920E-02    0.000000E+00
    0.877614E-01   -0.376395E-02    0.000000E+00
    0.876537E-01   -0.389217E-02    0.000000E+00
    0.875422E-01   -0.401329E-02    0.000000E+00
    0.874268E-01   -0.412672E-02    0.000000E+00
    0.873076E-01   -0.423184E-02    0.000000E+00
    0.871846E-01   -0.432805E-02    0.000000E+00
    0.870578E-01   -0.441469E-02    0.000000E+00
    0.869273E-01   -0.449113E-02    0.000000E+00
    0.880628E-01   -0.311780E-02    0.000000E+00
    0.879768E-01   -0.323741E-02    0.000000E+00
    0.878874E-01   -0.336951E-02    0.000000E+00
    0.877944E-01   -0.349602E-02    0.000000E+00
    0.876980E-01   -0.361637E-02    0.000000E+00
    0.875983E-01   -0.373000E-02    0.000000E+00
    0.874952E-01   -0.383630E-02    0.000000E+00
    0.873888E-01   -0.393469E-02    0.000000E+00
    0.872792E-01   -0.402456E-02    0.000000E+00
    0.871663E-01   -0.410529E-02    0.000000E+00
    0.870502E-01   -0.417625E-02    0.000000E+00
    0.863018E-01   -0.633045E-02    0.155051E-17
    0.861106E-01   -0.655567E-02    0.160568E-17
    0.859206E-01   -0.676977E-02    0.165811E-17
    0.857323E-01   -0.697289E-02    0.170786E-17
    0.855460E-01   -0.716520E-02    0.175497E-17
    0.853617E-01   -0.734686E-02    0.179946E-17
    0.851795E-01   -0.751802E-02    0.184138E-17
    0.849992E-01   -0.767877E-02    0.188076E-17
    0.848203E-01   -0.782915E-02    0.191759E-17
    0.846423E-01   -0.796910E-02    0.195187E-17
    0.844645E-01   -0.809848E-02    0.198356E-17
    0.865838E-01   -0.592094E-02    0.145021E-17
    0.864081E-01   -0.614182E-02    0.150431E-17
    0.862321E-01   -0.635241E-02    0.155589E-17
    0.860563E-01   -0.655271E-02    0.160495E-17
    0.858808E-01   -0.674269E-02    0.165148E-17
    0.857059E-01   -0.692234E-02    0.169548E-17
    0.855313E-01   -0.709161E-02    0.173694E-17
    0.853570E-01   -0.725045E-02    0.177585E-17
    0.851826E-01   -0.739871E-02    0.181216E-17
    0.850077E-01   -0.753619E-02    0.184583E-17
    0.848316E-01   -0.766260E-02    0.187680E-17
    0.869562E-01   -0.552815E-02    0.135401E-17
    0.867897E-01   -0.574316E-02    0.140667E-17
    0.866215E-01   -0.594867E-02    0.145700E-17
    0.864521E-01   -0.614451E-02    0.150497E-17
    0.862817E-01   -0.633052E-02    0.155053E-17
    0.861103E-01   -0.650651E-02    0.159364E-17
    0.859378E-01   -0.667230E-02    0.163424E-17
    0.857642E-01   -0.682767E-02    0.167230E-17
    0.855891E-01   -0.697235E-02    0.170773E-17
    0.854122E-01   -0.710600E-02    0.174047E-17
    0.852330E-01   -0.722821E-02    0.177040E-17
    0.872606E-01   -0.515507E-02    0.126263E-17
    0.871051E-01   -0.536258E-02    0.131345E-17
    0.869468E-01   -0.556134E-02    0.136214E-17
    0.867859E-01   -0.575104E-02    0.140860E-17
    0.866227E-01   -0.593138E-02    0.145277E-17
    0.864571E-01   -0.610207E-02    0.149458E-17
    0.862892E-01   -0.626278E-02    0.153394E-17
    0.861189E-01   -0.641318E-02    0.157078E-17
    0.859459E-01   -0.655287E-02    0.160499E-17
    0.857699E-01   -0.668142E-02    0.163648E-17
    0.855906E-01   -0.679832E-02    0.166511E-17
    0.875021E-01   -0.480367E-02    0.117656E-17
    0.873586E-01   -0.500218E-02    0.122518E-17
    0.872113E-01   -0.519264E-02    0.127183E-17
    0.870603E-01   -0.537464E-02    0.131641E-17
    0.869058E-01   -0.554779E-02    0.135882E-17
    0.867479E-01   -0.571168E-02    0.139896E-17
    0.865867E-01   -0.586588E-02    0.143673E-17
    0.864219E-01   -0.600997E-02    0.147202E-17
    0.862536E-01   -0.614346E-02    0.150471E-17
    0.860814E-01   -0.626583E-02    0.153469E-17
    0.859051E-01   -0.637651E-02    0.156179E-17
    0.876909E-01   -0.447416E-02    0.109585E-17
    0.875590E-01   -0.466255E-02    0.114199E-17
    0.874227E-01   -0.484353E-02    0.118632E-17
    0.872819E-01   -0.501662E-02    0.122872E-17
    0.871369E-01   -0.518137E-02    0.126907E-17
    0.869877E-01   -0.533728E-02    0.130726E-17
    0.868345E-01   -0.548386E-02    0.134316E-17
    0.866770E-01   -0.562060E-02    0.137665E-17
    0.865153E-01   -0.574696E-02    0.140760E-17
    0.863491E-01   -0.586235E-02    0.143586E-17
    0.861784E-01   -0.596614E-02    0.146128E-17
    0.878366E-01   -0.416530E-02    0.102021E-17
    0.877153E-01   -0.434290E-02    0.106370E-17
    0.875891E-01   -0.451367E-02    0.110553E-17
    0.874582E-01   -0.467711E-02    0.114556E-17
    0.873227E-01   -0.483269E-02    0.118367E-17
    0.871826E-01   -0.497988E-02    0.121972E-17
    0.870380E-01   -0.511812E-02    0.125358E-17
    0.868888E-01   -0.524687E-02    0.128511E-17
    0.867351E-01   -0.536553E-02    0.131418E-17
    0.865768E-01   -0.547349E-02    0.134062E-17
    0.864137E-01   -0.557008E-02    0.136428E-17
    0.879459E-01   -0.387496E-02    0.949091E-18
    0.878339E-01   -0.404160E-02    0.989906E-18
    0.877169E-01   -0.420195E-02    0.102918E-17
    0.875952E-01   -0.435547E-02    0.106678E-17
    0.874688E-01   -0.450160E-02    0.110257E-17
    0.873377E-01   -0.463979E-02    0.113642E-17
    0.872022E-01   -0.476945E-02    0.116818E-17
    0.870620E-01   -0.489000E-02    0.119771E-17
    0.869174E-01   -0.500082E-02    0.122485E-17
    0.867681E-01   -0.510128E-02    0.124945E-17
    0.866143E-01   -0.519071E-02    0.127136E-17
    0.880211E-01   -0.360101E-02    0.881993E-18
    0.879172E-01   -0.375701E-02    0.920202E-18
    0.878087E-01   -0.390720E-02    0.956988E-18
    0.876958E-01   -0.405102E-02    0.992214E-18
    0.875784E-01   -0.418791E-02    0.102574E-17
    0.874567E-01   -0.431728E-02    0.105743E-17
    0.873307E-01   -0.443856E-02    0.108713E-17
    0.872004E-01   -0.455112E-02    0.111470E-17
    0.870659E-01   -0.465436E-02    0.113999E-17
    0.869271E-01   -0.474762E-02    0.116283E-17
    0.867840E-01   -0.483025E-02    0.118307E-17
    0.880604E-01   -0.334243E-02    0.818659E-18
    0.879648E-01   -0.348851E-02    0.854438E-18
    0.878651E-01   -0.362920E-02    0.888898E-18
    0.877614E-01   -0.376395E-02    0.921901E-18
    0.876537E-01   -0.389217E-02    0.953307E-18
    0.875422E-01   -0.401329E-02    0.982974E-18
    0.874268E-01   -0.412672E-02    0.101075E-17
    0.873076E-01   -0.423184E-02    0.103650E-17
    0.871846E-01   -0.432805E-02    0.106007E-17
    0.870578E-01   -0.441469E-02    0.108129E-17
    0.869273E-01   -0.449113E-02    0.110001E-17
    0.880628E-01   -0.310028E-02    0.759349E-18
    0.879768E-01   -0.323741E-02    0.792937E-18
    0.878874E-01   -0.336951E-02    0.825292E-18
    0.877944E-01   -0.349602E-02    0.856278E-18
    0.876980E-01   -0.361637E-02    0.885756E-18
    0.875983E-01   -0.373000E-02    0.913585E-18
    0.874952E-01   -0.383630E-02    0.939623E-18
    0.873888E-01   -0.393469E-02    0.963721E-18
    0.872792E-01   -0.402456E-02    0.985733E-18
    0.871663E-01   -0.410529E-02    0.100551E-17
    0.870502E-01   -0.417625E-02    0.102289E-17
</DataArray>
</PointData>
<CellData>
<DataArray Name="DP" type="Float64" format="ascii" NumberOfComponents="1">
      0.000000E+0000
      0.000000E+0000
      0.000000E+0000
      0.000000E+0000
      0.000000E+0000
      0.000000E+0000
      0.000000E+0000
      0.000000E+0000
      0.000000E+0000
      0.000000E+0000
      0.000000E+0000
      0.000000E+0000
      0.000000E+0000
      0.000000E+0000
      0.000000E+0000
      0.000000E+0000
      0.000000E+0000
      0.000000E+0000
      0.000000E+0000
      0.000000E+0000
      0.000000E+0000
      0.000000E+0000
      0.000000E+0000
      0.000000E+0000
      0.000000E+0000
      0.000000E+0000
      0.000000E+0000
      0.000000E+0000
      0.000000E+0000
      0.000000E+0000
      0.000000E+0000
      0.000000E+0000
      0.000000E+0000
      0.000000E+0000
      0.000000E+0000
      0.000000E+0000
      0.000000E+0000
      0.000000E+0000
      0.000000E+0000
      0.000000E+0000
      0.000000E+0000
      0.000000E+0000
      0.000000E+0000
      0.000000E+0000
      0.000000E+0000
      0.000000E+0000
      0.000000E+0000
      0.000000E+0000
      0.000000E+0000
      0.000000E+0000
      0.000000E+0000
      0.000000E+0000
      0.000000E+0000
      0.000000E+0000
      0.000000E+0000
      0.000000E+0000
      0.000000E+0000
      0.000000E+0000
      0.000000E+0000
      0.000000E+0000
      0.000000E+0000
      0.000000E+0000
      0.000000E+0000
      0.000000E+0000
      0.000000E+0000
      0.000000E+0000
      0.000000E+0000
      0.000000E+0000
      0.000000E+0000
      0.000000E+0000
      0.000000E+0000
      0.000000E+0000
      0.000000E+0000
      0.000000E+0000
      0.000000E+0000
      0.000000E+0000
      0.000000E+0000
      0.000000E+0000
      0.000000E+0000
      0.000000E+0000
      0.000000E+0000
      0.000000E+0000
      0.000000E+0000
      0.000000E+0000
      0.000000E+0000
      0.000000E+0000
      0.000000E+0000
      0.000000E+0000
      0.000000E+0000
      0.000000E+0000
      0.000000E+0000
      0.000000E+0000
      0.000000E+0000
      0.000000E+0000
      0.000000E+0000
      0.000000E+0000
      0.000000E+0000
      0.000000E+0000
      0.000000E+0000
      0.000000E+0000
</DataArray>
<DataArray Name="P" type="Float64" format="ascii" NumberOfComponents="1">
      0.566290E+0000
      0.562736E+0000
      0.559146E+0000
      0.555520E+0000
      0.551856E+0000
      0.548156E+0000
      0.544419E+0000
      0.540643E+0000
      0.536828E+0000
      0.532975E+0000
      0.566316E+0000
      0.562761E+0000
      0.559169E+0000
      0.555542E+0000
      0.551877E+0000
      0.548176E+0000
      0.544437E+0000
      0.540660E+0000
      0.536845E+0000
      0.532991E+0000
      0.566343E+0000
      0.562786E+0000
      0.559193E+0000
      0.555564E+0000
      0.551899E+0000
      0.548196E+0000
      0.544456E+0000
      0.540679E+0000
      0.536862E+0000
      0.533008E+0000
      0.566370E+0000
      0.562812E+0000
      0.559218E+0000
      0.555588E+0000
      0.551921E+0000
      0.548218E+0000
      0.544477E+0000
      0.540698E+0000
      0.536881E+0000
      0.533025E+0000
      0.566398E+0000
      0.562838E+0000
      0.559242E+0000
      0.555611E+0000
      0.551944E+0000
      0.548239E+0000
      0.544497E+0000
      0.540718E+0000
      0.536900E+0000
      0.533044E+0000
      0.566424E+0000
      0.562864E+0000
      0.559267E+0000
      0.555635E+0000
      0.551966E+0000
      0.548261E+0000
      0.544518E+0000
      0.540738E+0000
      0.536919E+0000
      0.533063E+0000
      0.566451E+0000
      0.562889E+0000
      0.559292E+0000
      0.555658E+0000
      0.551989E+0000
      0.548283E+0000
      0.544539E+0000
      0.540758E+0000
      0.536939E+0000
      0.533082E+0000
      0.566477E+0000
      0.562914E+0000
      0.559316E+0000
      0.555682E+0000
      0.552012E+0000
      0.548305E+0000
      0.544560E+0000
      0.540779E+0000
      0.536959E+0000
      0.533101E+0000
      0.566503E+0000
      0.562939E+0000
      0.559340E+0000
      0.555705E+0000
      0.552034E+0000
      0.548326E+0000
      0.544581E+0000
      0.540799E+0000
      0.536979E+0000
      0.533120E+0000
      0.566528E+0000
      0.562964E+0000
      0.559364E+0000
      0.555729E+0000
      0.552057E+0000
      0.548348E+0000
      0.544602E+0000
      0.540819E+0000
      0.536999E+0000
      0.533140E+0000
</DataArray>
<DataArray Name="RHO" type="Float64" format="ascii" NumberOfComponents="1">
      0.117197E+0001
      0.117197E+0001
      0.117197E+0001
      0.117197E+0001
      0.117197E+0001
      0.117197E+0001
      0.117197E+0001
      0.117197E+0001
      0.117197E+0001
      0.117197E+0001
      0.117197E+0001
      0.117197E+0001
      0.117197E+0001
      0.117197E+0001
      0.117197E+0001
      0.117197E+0001
      0.117197E+0001
      0.117197E+0001
      0.117197E+0001
      0.117197E+0001
      0.117197E+0001
      0.117197E+0001
      0.117197E+0001
      0.117197E+0001
      0.117197E+0001
      0.117197E+0001
      0.117197E+0001
      0.117197E+0001
      0.117197E+0001
      0.117197E+0001
      0.117197E+0001
      0.117197E+0001
      0.117197E+0001
      0.117197E+0001
      0.117197E+0001
      0.117197E+0001
      0.117197E+0001
      0.117197E+0001
      0.117197E+0001
      0.117197E+0001
      0.117197E+0001
      0.117197E+0001
      0.117197E+0001
      0.117197E+0001
      0.117197E+0001
      0.117197E+0001
      0.117197E+0001
      0.117197E+0001
      0.117197E+0001
      0.117197E+0001
      0.117197E+0001
      0.117197E+0001
      0.117197E+0001
      0.117197E+0001
      0.117197E+0001
      0.117197E+0001
      0.117197E+0001
      0.117197E+0001
      0.117197E+0001
      0.117197E+0001
      0.117197E+0001
      0.117197E+0001