<?xml version="1.0"?>
<VTKFile type="StructuredGrid" version="0.1" byte_order="LittleEndian">
<StructuredGrid WholeExtent="         170         180          40          50           0           1">
<Piece Extent="         170         180          40          50           0           1">
<Points>
<DataArray NumberOfComponents="3" type="Float64" format="ascii">
    0.112170E+00    0.912275E-02    0.000000E+00
    0.113545E+00    0.912275E-02    0.000000E+00
    0.114934E+00    0.912275E-02    0.000000E+00
    0.116336E+00    0.912275E-02    0.000000E+00
    0.117753E+00    0.912275E-02    0.000000E+00
    0.119184E+00    0.912275E-02    0.000000E+00
    0.120629E+00    0.912275E-02    0.000000E+00
    0.122089E+00    0.912275E-02    0.000000E+00
    0.123563E+00    0.912275E-02    0.000000E+00
    0.125052E+00    0.912275E-02    0.000000E+00
    0.126556E+00    0.912275E-02    0.000000E+00
    0.112170E+00    0.940718E-02    0.000000E+00
    0.113545E+00    0.940718E-02    0.000000E+00
    0.114934E+00    0.940718E-02    0.000000E+00
    0.116336E+00    0.940718E-02    0.000000E+00
    0.117753E+00    0.940718E-02    0.000000E+00
    0.119184E+00    0.940718E-02    0.000000E+00
    0.120629E+00    0.940718E-02    0.000000E+00
    0.122089E+00    0.940718E-02    0.000000E+00
    0.123563E+00    0.940718E-02    0.000000E+00
    0.125052E+00    0.940718E-02    0.000000E+00
    0.126556E+00    0.940718E-02    0.000000E+00
    0.112170E+00    0.970015E-02    0.000000E+00
    0.113545E+00    0.970015E-02    0.000000E+00
    0.114934E+00    0.970015E-02    0.000000E+00
    0.116336E+00    0.970015E-02    0.000000E+00
    0.117753E+00    0.970015E-02    0.000000E+00
    0.119184E+00    0.970015E-02    0.000000E+00
    0.120629E+00    0.970015E-02    0.000000E+00
    0.122089E+00    0.970015E-02    0.000000E+00
    0.123563E+00    0.970015E-02    0.000000E+00
    0.125052E+00    0.970015E-02    0.000000E+00
    0.126556E+00    0.970015E-02    0.000000E+00
    0.112170E+00    0.100019E-01    0.000000E+00
    0.113545E+00    0.100019E-01    0.000000E+00
    0.114934E+00    0.100019E-01    0.000000E+00
    0.116336E+00    0.100019E-01    0.000000E+00
    0.117753E+00    0.100019E-01    0.000000E+00
    0.119184E+00    0.100019E-01    0.000000E+00
    0.120629E+00    0.100019E-01    0.000000E+00
    0.122089E+00    0.100019E-01    0.000000E+00
    0.123563E+00    0.100019E-01    0.000000E+00
    0.125052E+00    0.100019E-01    0.000000E+00
    0.126556E+00    0.100019E-01    0.000000E+00
    0.112170E+00    0.103127E-01    0.000000E+00
    0.113545E+00    0.103127E-01    0.000000E+00
    0.114934E+00    0.103127E-01    0.000000E+00
    0.116336E+00    0.103127E-01    0.000000E+00
    0.117753E+00    0.103127E-01    0.000000E+00
    0.119184E+00    0.103127E-01    0.000000E+00
    0.120629E+00    0.103127E-01    0.000000E+00
    0.122089E+00    0.103127E-01    0.000000E+00
    0.123563E+00    0.103127E-01    0.000000E+00
    0.125052E+00    0.103127E-01    0.000000E+00
    0.126556E+00    0.103127E-01    0.000000E+00
    0.112170E+00    0.106328E-01    0.000000E+00
    0.113545E+00    0.106328E-01    0.000000E+00
    0.114934E+00    0.106328E-01    0.000000E+00
    0.116336E+00    0.106328E-01    0.000000E+00
    0.117753E+00    0.106328E-01    0.000000E+00
    0.119184E+00    0.106328E-01    0.000000E+00
    0.120629E+00    0.106328E-01    0.000000E+00
    0.122089E+00    0.106328E-01    0.000000E+00
    0.123563E+00    0.106328E-01    0.000000E+00
    0.125052E+00    0.106328E-01    0.000000E+00
    0.126556E+00    0.106328E-01    0.000000E+00
    0.112170E+00    0.109626E-01    0.000000E+00
    0.113545E+00    0.109626E-01    0.000000E+00
    0.114934E+00    0.109626E-01    0.000000E+00
    0.116336E+00    0.109626E-01    0.000000E+00
    0.117753E+00    0.109626E-01    0.000000E+00
    0.119184E+00    0.109626E-01    0.000000E+00
    0.120629E+00    0.109626E-01    0.000000E+00
    0.122089E+00    0.109626E-01    0.000000E+00
    0.123563E+00    0.109626E-01    0.000000E+00
    0.125052E+00    0.109626E-01    0.000000E+00
    0.126556E+00    0.109626E-01    0.000000E+00
    0.112170E+00    0.113022E-01    0.000000E+00
    0.113545E+00    0.113022E-01    0.000000E+00
    0.114934E+00    0.113022E-01    0.000000E+00
    0.116336E+00    0.113022E-01    0.000000E+00
    0.117753E+00    0.113022E-01    0.000000E+00
    0.119184E+00    0.113022E-01    0.000000E+00
    0.120629E+00    0.113022E-01    0.000000E+00
    0.122089E+00    0.113022E-01    0.000000E+00
    0.123563E+00    0.113022E-01    0.000000E+00
    0.125052E+00    0.113022E-01    0.000000E+00
    0.126556E+00    0.113022E-01    0.000000E+00
    0.112170E+00    0.116520E-01    0.000000E+00
    0.113545E+00    0.116520E-01    0.000000E+00
    0.114934E+00    0.116520E-01    0.000000E+00
    0.116336E+00    0.116520E-01    0.000000E+00
    0.117753E+00    0.116520E-01    0.000000E+00
    0.119184E+00    0.116520E-01    0.000000E+00
    0.120629E+00    0.116520E-01    0.000000E+00
    0.122089E+00    0.116520E-01    0.000000E+00
    0.123563E+00    0.116520E-01    0.000000E+00
    0.125052E+00    0.116520E-01    0.000000E+00
    0.126556E+00    0.116520E-01    0.000000E+00
    0.112170E+00    0.120123E-01    0.000000E+00
    0.113545E+00    0.120123E-01    0.000000E+00
    0.114934E+00    0.120123E-01    0.000000E+00
    0.116336E+00    0.120123E-01    0.000000E+00
    0.117753E+00    0.120123E-01    0.000000E+00
    0.119184E+00    0.120123E-01    0.000000E+00
    0.120629E+00    0.120123E-01    0.000000E+00
    0.122089E+00    0.120123E-01    0.000000E+00
    0.123563E+00    0.120123E-01    0.000000E+00
    0.125052E+00    0.120123E-01    0.000000E+00
    0.126556E+00    0.120123E-01    0.000000E+00
    0.112170E+00    0.123834E-01    0.000000E+00
    0.113545E+00    0.123834E-01    0.000000E+00
    0.114934E+00    0.123834E-01    0.000000E+00
    0.116336E+00    0.123834E-01    0.000000E+00
    0.117753E+00    0.123834E-01    0.000000E+00
    0.119184E+00    0.123834E-01    0.000000E+00
    0.120629E+00    0.123834E-01    0.000000E+00
    0.122089E+00    0.123834E-01    0.000000E+00
    0.123563E+00    0.123834E-01    0.000000E+00
    0.125052E+00    0.123834E-01    0.000000E+00
    0.126556E+00    0.123834E-01    0.000000E+00
    0.112170E+00    0.912275E-02    0.160000E-02
    0.113545E+00    0.912275E-02    0.160000E-02
    0.114934E+00    0.912275E-02    0.160000E-02
    0.116336E+00    0.912275E-02    0.160000E-02
    0.117753E+00    0.912275E-02    0.160000E-02
    0.119184E+00    0.912275E-02    0.160000E-02
    0.120629E+00    0.912275E-02    0.160000E-02
    0.122089E+00    0.912275E-02    0.160000E-02
    0.123563E+00    0.912275E-02    0.160000E-02
    0.125052E+00    0.912275E-02    0.160000E-02
    0.126556E+00    0.912275E-02    0.160000E-02
    0.112170E+00    0.940718E-02    0.160000E-02
    0.113545E+00    0.940718E-02    0.160000E-02
    0.114934E+00    0.940718E-02    0.160000E-02
    0.116336E+00    0.940718E-02    0.160000E-02
    0.117753E+00    0.940718E-02    0.160000E-02
    0.119184E+00    0.940718E-02    0.160000E-02
    0.120629E+00    0.940718E-02    0.160000E-02
    0.122089E+00    0.940718E-02    0.160000E-02
    0.123563E+00    0.940718E-02    0.160000E-02
    0.125052E+00    0.940718E-02    0.160000E-02
    0.126556E+00    0.940718E-02    0.160000E-02
    0.112170E+00    0.970015E-02    0.160000E-02
    0.113545E+00    0.970015E-02    0.160000E-02
    0.114934E+00    0.970015E-02    0.160000E-02
    0.116336E+00    0.970015E-02    0.160000E-02
    0.117753E+00    0.970015E-02    0.160000E-02
    0.119184E+00    0.970015E-02    0.160000E-02
    0.120629E+00    0.970015E-02    0.160000E-02
    0.122089E+00    0.970015E-02    0.160000E-02
    0.123563E+00    0.970015E-02    0.160000E-02
    0.125052E+00    0.970015E-02    0.160000E-02
    0.126556E+00    0.970015E-02    0.160000E-02
    0.112170E+00    0.100019E-01    0.160000E-02
    0.113545E+00    0.100019E-01    0.160000E-02
    0.114934E+00    0.100019E-01    0.160000E-02
    0.116336E+00    0.100019E-01    0.160000E-02
    0.117753E+00    0.100019E-01    0.160000E-02
    0.119184E+00    0.100019E-01    0.160000E-02
    0.120629E+00    0.100019E-01    0.160000E-02
    0.122089E+00    0.100019E-01    0.160000E-02
    0.123563E+00    0.100019E-01    0.160000E-02
    0.125052E+00    0.100019E-01    0.160000E-02
    0.126556E+00    0.100019E-01    0.160000E-02
    0.112170E+00    0.103127E-01    0.160000E-02
    0.113545E+00    0.103127E-01    0.160000E-02
    0.114934E+00    0.103127E-01    0.160000E-02
    0.116336E+00    0.103127E-01    0.160000E-02
    0.117753E+00    0.103127E-01    0.160000E-02
    0.119184E+00    0.103127E-01    0.160000E-02
    0.120629E+00    0.103127E-01    0.160000E-02
    0.122089E+00    0.103127E-01    0.160000E-02
    0.123563E+00    0.103127E-01    0.160000E-02
    0.125052E+00    0.103127E-01    0.160000E-02
    0.126556E+00    0.103127E-01    0.160000E-02
    0.112170E+00    0.106328E-01    0.160000E-02
    0.113545E+00    0.106328E-01    0.160000E-02
    0.114934E+00    0.106328E-01    0.160000E-02
    0.116336E+00    0.106328E-01    0.160000E-02
    0.117753E+00    0.106328E-01    0.160000E-02
    0.119184E+00    0.106328E-01    0.160000E-02
    0.120629E+00    0.106328E-01    0.160000E-02
    0.122089E+00    0.106328E-01    0.160000E-02
    0.123563E+00    0.106328E-01    0.160000E-02
    0.125052E+00    0.106328E-01    0.160000E-02
    0.126556E+00    0.106328E-01    0.160000E-02
    0.112170E+00    0.109626E-01    0.160000E-02
    0.113545E+00    0.109626E-01    0.160000E-02
    0.114934E+00    0.109626E-01    0.160000E-02
    0.116336E+00    0.109626E-01    0.160000E-02
    0.117753E+00    0.109626E-01    0.160000E-02
    0.119184E+00    0.109626E-01    0.160000E-02
    0.120629E+00    0.109626E-01    0.160000E-02
    0.122089E+00    0.109626E-01    0.160000E-02
    0.123563E+00    0.109626E-01    0.160000E-02
    0.125052E+00    0.109626E-01    0.160000E-02
    0.126556E+00    0.109626E-01    0.160000E-02
    0.112170E+00    0.113022E-01    0.160000E-02
    0.113545E+00    0.113022E-01    0.160000E-02
    0.114934E+00    0.113022E-01    0.160000E-02
    0.116336E+00    0.113022E-01    0.160000E-02
    0.117753E+00    0.113022E-01    0.160000E-02
    0.119184E+00    0.113022E-01    0.160000E-02
    0.120629E+00    0.113022E-01    0.160000E-02
    0.122089E+00    0.113022E-01    0.160000E-02
    0.123563E+00    0.113022E-01    0.160000E-02
    0.125052E+00    0.113022E-01    0.160000E-02
    0.126556E+00    0.113022E-01    0.160000E-02
    0.112170E+00    0.116520E-01    0.160000E-02
    0.113545E+00    0.116520E-01    0.160000E-02
    0.114934E+00    0.116520E-01    0.160000E-02
    0.116336E+00    0.116520E-01    0.160000E-02
    0.117753E+00    0.116520E-01    0.160000E-02
    0.119184E+00    0.116520E-01    0.160000E-02
    0.120629E+00    0.116520E-01    0.160000E-02
    0.122089E+00    0.116520E-01    0.160000E-02
    0.123563E+00    0.116520E-01    0.160000E-02
    0.125052E+00    0.116520E-01    0.160000E-02
    0.126556E+00    0.116520E-01    0.160000E-02
    0.112170E+00    0.120123E-01    0.160000E-02
    0.113545E+00    0.120123E-01    0.160000E-02
    0.114934E+00    0.120123E-01    0.160000E-02
    0.116336E+00    0.120123E-01    0.160000E-02
    0.117753E+00    0.120123E-01    0.160000E-02
    0.119184E+00    0.120123E-01    0.160000E-02
    0.120629E+00    0.120123E-01    0.160000E-02
    0.122089E+00    0.120123E-01    0.160000E-02
    0.123563E+00    0.120123E-01    0.160000E-02
    0.125052E+00    0.120123E-01    0.160000E-02
    0.126556E+00    0.120123E-01    0.160000E-02
    0.112170E+00    0.123834E-01    0.160000E-02
    0.113545E+00    0.123834E-01    0.160000E-02
    0.114934E+00    0.123834E-01    0.160000E-02
    0.116336E+00    0.123834E-01    0.160000E-02
    0.117753E+00    0.123834E-01    0.160000E-02
    0.119184E+00    0.123834E-01    0.160000E-02
    0.120629E+00    0.123834E-01    0.160000E-02
    0.122089E+00    0.123834E-01    0.160000E-02
    0.123563E+00    0.123834E-01    0.160000E-02
    0.125052E+00    0.123834E-01    0.160000E-02
    0.126556E+00    0.123834E-01    0.160000E-02
</DataArray>
</Points>
<PointData>
<DataArray Name="Velocity" type="Float64" format="ascii" NumberOfComponents="3">
    0.884010E-01   -0.571323E-06    0.000000E+00
    0.884011E-01   -0.522878E-06    0.000000E+00
    0.884012E-01   -0.471709E-06    0.000000E+00
    0.884014E-01   -0.425611E-06    0.000000E+00
    0.884015E-01   -0.383600E-06    0.000000E+00
    0.884016E-01   -0.345506E-06    0.000000E+00
    0.884017E-01   -0.311069E-06    0.000000E+00
    0.884018E-01   -0.279487E-06    0.000000E+00
    0.884019E-01   -0.250713E-06    0.000000E+00
    0.884019E-01   -0.225032E-06    0.000000E+00
    0.884020E-01   -0.201035E-06    0.000000E+00
    0.884010E-01   -0.585486E-06    0.000000E+00
    0.884011E-01   -0.536128E-06    0.000000E+00
    0.884013E-01   -0.484631E-06    0.000000E+00
    0.884014E-01   -0.437351E-06    0.000000E+00
    0.884015E-01   -0.394013E-06    0.000000E+00
    0.884016E-01   -0.354628E-06    0.000000E+00
    0.884017E-01   -0.318975E-06    0.000000E+00
    0.884018E-01   -0.286560E-06    0.000000E+00
    0.884019E-01   -0.257049E-06    0.000000E+00
    0.884019E-01   -0.230297E-06    0.000000E+00
    0.884020E-01   -0.205801E-06    0.000000E+00
    0.884010E-01   -0.601631E-06    0.000000E+00
    0.884011E-01   -0.550882E-06    0.000000E+00
    0.884013E-01   -0.497851E-06    0.000000E+00
    0.884014E-01   -0.449293E-06    0.000000E+00
    0.884015E-01   -0.404824E-06    0.000000E+00
    0.884016E-01   -0.364395E-06    0.000000E+00
    0.884017E-01   -0.327743E-06    0.000000E+00
    0.884018E-01   -0.294390E-06    0.000000E+00
    0.884019E-01   -0.264041E-06    0.000000E+00
    0.884020E-01   -0.236484E-06    0.000000E+00
    0.884020E-01   -0.211306E-06    0.000000E+00
    0.884010E-01   -0.618125E-06    0.000000E+00
    0.884011E-01   -0.565955E-06    0.000000E+00
    0.884013E-01   -0.511400E-06    0.000000E+00
    0.884014E-01   -0.461519E-06    0.000000E+00
    0.884015E-01   -0.415885E-06    0.000000E+00
    0.884016E-01   -0.374372E-06    0.000000E+00
    0.884017E-01   -0.336704E-06    0.000000E+00
    0.884018E-01   -0.302410E-06    0.000000E+00
    0.884019E-01   -0.271192E-06    0.000000E+00
    0.884020E-01   -0.242830E-06    0.000000E+00
    0.884020E-01   -0.216956E-06    0.000000E+00
    0.884010E-01   -0.634945E-06    0.000000E+00
    0.884011E-01   -0.581334E-06    0.000000E+00
    0.884013E-01   -0.525244E-06    0.000000E+00
    0.884014E-01   -0.474007E-06    0.000000E+00
    0.884015E-01   -0.427170E-06    0.000000E+00
    0.884016E-01   -0.384547E-06    0.000000E+00
    0.884017E-01   -0.345847E-06    0.000000E+00
    0.884018E-01   -0.310598E-06    0.000000E+00
    0.884019E-01   -0.278492E-06    0.000000E+00
    0.884020E-01   -0.249317E-06    0.000000E+00
    0.884020E-01   -0.222735E-06    0.000000E+00
    0.884010E-01   -0.652045E-06    0.000000E+00
    0.884012E-01   -0.596973E-06    0.000000E+00
    0.884013E-01   -0.539341E-06    0.000000E+00
    0.884014E-01   -0.486720E-06    0.000000E+00
    0.884015E-01   -0.438646E-06    0.000000E+00
    0.884016E-01   -0.394891E-06    0.000000E+00
    0.884017E-01   -0.355149E-06    0.000000E+00
    0.884018E-01   -0.318929E-06    0.000000E+00
    0.884019E-01   -0.285919E-06    0.000000E+00
    0.884020E-01   -0.255924E-06    0.000000E+00
    0.884020E-01   -0.228624E-06    0.000000E+00
    0.884010E-01   -0.669365E-06    0.000000E+00
    0.884012E-01   -0.612821E-06    0.000000E+00
    0.884013E-01   -0.553638E-06    0.000000E+00
    0.884014E-01   -0.499614E-06    0.000000E+00
    0.884015E-01   -0.450274E-06    0.000000E+00
    0.884016E-01   -0.405370E-06    0.000000E+00
    0.884017E-01   -0.364578E-06    0.000000E+00
    0.884018E-01   -0.327376E-06    0.000000E+00
    0.884019E-01   -0.293446E-06    0.000000E+00
    0.884020E-01   -0.262628E-06    0.000000E+00
    0.884020E-01   -0.234601E-06    0.000000E+00
    0.884010E-01   -0.686838E-06    0.000000E+00
    0.884012E-01   -0.628812E-06    0.000000E+00
    0.884013E-01   -0.568077E-06    0.000000E+00
    0.884014E-01   -0.512635E-06    0.000000E+00
    0.884016E-01   -0.462007E-06    0.000000E+00
    0.884017E-01   -0.415940E-06    0.000000E+00
    0.884017E-01   -0.374097E-06    0.000000E+00
    0.884018E-01   -0.335906E-06    0.000000E+00
    0.884019E-01   -0.301042E-06    0.000000E+00
    0.884020E-01   -0.269399E-06    0.000000E+00
    0.884020E-01   -0.240641E-06    0.000000E+00
    0.884011E-01   -0.704387E-06    0.000000E+00
    0.884012E-01   -0.644878E-06    0.000000E+00
    0.884013E-01   -0.582595E-06    0.000000E+00
    0.884015E-01   -0.525729E-06    0.000000E+00
    0.884016E-01   -0.473792E-06    0.000000E+00
    0.884017E-01   -0.426555E-06    0.000000E+00
    0.884018E-01   -0.383670E-06    0.000000E+00
    0.884018E-01   -0.344484E-06    0.000000E+00
    0.884019E-01   -0.308671E-06    0.000000E+00
    0.884020E-01   -0.276209E-06    0.000000E+00
    0.884020E-01   -0.246720E-06    0.000000E+00
    0.884011E-01   -0.721935E-06    0.000000E+00
    0.884012E-01   -0.660951E-06    0.000000E+00
    0.884014E-01   -0.597128E-06    0.000000E+00
    0.884015E-01   -0.538838E-06    0.000000E+00
    0.884016E-01   -0.485577E-06    0.000000E+00
    0.884017E-01   -0.437167E-06    0.000000E+00
    0.884018E-01   -0.393257E-06    0.000000E+00
    0.884019E-01   -0.353075E-06    0.000000E+00
    0.884019E-01   -0.316294E-06    0.000000E+00
    0.884020E-01   -0.283035E-06    0.000000E+00
    0.884021E-01   -0.252812E-06    0.000000E+00
    0.884011E-01   -0.739883E-06    0.000000E+00
    0.884013E-01   -0.677206E-06    0.000000E+00
    0.884014E-01   -0.611371E-06    0.000000E+00
    0.884015E-01   -0.551298E-06    0.000000E+00
    0.884016E-01   -0.496486E-06    0.000000E+00
    0.884017E-01   -0.446723E-06    0.000000E+00
    0.884018E-01   -0.401348E-06    0.000000E+00
    0.884019E-01   -0.360279E-06    0.000000E+00
    0.884019E-01   -0.323081E-06    0.000000E+00
    0.884020E-01   -0.289013E-06    0.000000E+00
    0.884021E-01   -0.258597E-06    0.000000E+00
    0.884009E-01   -0.578472E-06    0.141685E-21
    0.884011E-01   -0.522878E-06    0.128068E-21
    0.884012E-01   -0.471709E-06    0.115535E-21
    0.884014E-01   -0.425611E-06    0.104245E-21
    0.884015E-01   -0.383600E-06    0.939548E-22
    0.884016E-01   -0.345506E-06    0.846245E-22
    0.884017E-01   -0.311069E-06    0.761898E-22
    0.884018E-01   -0.279487E-06    0.684545E-22
    0.884019E-01   -0.250713E-06    0.614071E-22
    0.884019E-01   -0.225032E-06    0.551169E-22
    0.884020E-01   -0.201035E-06    0.492393E-22
    0.884010E-01   -0.593028E-06    0.145250E-21
    0.884011E-01   -0.536128E-06    0.131314E-21
    0.884013E-01   -0.484631E-06    0.118700E-21
    0.884014E-01   -0.437351E-06    0.107120E-21
    0.884015E-01   -0.394013E-06    0.965053E-22
    0.884016E-01   -0.354628E-06    0.868589E-22
    0.884017E-01   -0.318975E-06    0.781263E-22
    0.884018E-01   -0.286560E-06    0.701870E-22
    0.884019E-01   -0.257049E-06    0.629587E-22
    0.884019E-01   -0.230297E-06    0.564065E-22
    0.884020E-01   -0.205801E-06    0.504068E-22
    0.884010E-01   -0.609354E-06    0.149249E-21
    0.884011E-01   -0.550882E-06    0.134927E-21
    0.884013E-01   -0.497851E-06    0.121938E-21
    0.884014E-01   -0.449293E-06    0.110045E-21
    0.884015E-01   -0.404824E-06    0.991533E-22
    0.884016E-01   -0.364395E-06    0.892511E-22
    0.884017E-01   -0.327743E-06    0.802738E-22
    0.884018E-01   -0.294390E-06    0.721047E-22
    0.884019E-01   -0.264041E-06    0.646714E-22
    0.884020E-01   -0.236484E-06    0.579219E-22
    0.884020E-01   -0.211306E-06    0.517551E-22
    0.884010E-01   -0.626053E-06    0.153339E-21
    0.884011E-01   -0.565955E-06    0.138619E-21
    0.884013E-01   -0.511400E-06    0.125257E-21
    0.884014E-01   -0.461519E-06    0.113039E-21
    0.884015E-01   -0.415885E-06    0.101862E-21
    0.884016E-01   -0.374372E-06    0.916947E-22
    0.884017E-01   -0.336704E-06    0.824686E-22
    0.884018E-01   -0.302410E-06    0.740691E-22
    0.884019E-01   -0.271192E-06    0.664230E-22
    0.884020E-01   -0.242830E-06    0.594761E-22
    0.884020E-01   -0.216956E-06    0.531389E-22
    0.884010E-01   -0.643086E-06    0.157511E-21
    0.884011E-01   -0.581334E-06    0.142386E-21
    0.884013E-01   -0.525244E-06    0.128648E-21
    0.884014E-01   -0.474007E-06    0.116098E-21
    0.884015E-01   -0.427170E-06    0.104626E-21
    0.884016E-01   -0.384547E-06    0.941868E-22
    0.884017E-01   -0.345847E-06    0.847082E-22
    0.884018E-01   -0.310598E-06    0.760744E-22
    0.884019E-01   -0.278492E-06    0.682109E-22
    0.884020E-01   -0.249317E-06    0.610650E-22
    0.884020E-01   -0.222735E-06    0.545543E-22
    0.884010E-01   -0.660404E-06    0.161752E-21
    0.884012E-01   -0.596973E-06    0.146216E-21
    0.884013E-01   -0.539341E-06    0.132100E-21
    0.884014E-01   -0.486720E-06    0.119212E-21
    0.884015E-01   -0.438646E-06    0.107437E-21
    0.884016E-01   -0.394891E-06    0.967205E-22
    0.884017E-01   -0.355149E-06    0.869864E-22
    0.884018E-01   -0.318929E-06    0.781151E-22
    0.884019E-01   -0.285919E-06    0.700299E-22
    0.884020E-01   -0.255924E-06    0.626834E-22
    0.884020E-01   -0.228624E-06    0.559967E-22
    0.884010E-01   -0.677947E-06    0.166049E-21
    0.884012E-01   -0.612821E-06    0.150098E-21
    0.884013E-01   -0.553638E-06    0.135602E-21
    0.884014E-01   -0.499614E-06    0.122370E-21
    0.884015E-01   -0.450274E-06    0.110285E-21
    0.884016E-01   -0.405370E-06    0.992869E-22
    0.884017E-01   -0.364578E-06    0.892958E-22
    0.884018E-01   -0.327376E-06    0.801841E-22
    0.884019E-01   -0.293446E-06    0.718735E-22
    0.884020E-01   -0.262628E-06    0.643253E-22
    0.884020E-01   -0.234601E-06    0.574606E-22
    0.884010E-01   -0.695644E-06    0.170384E-21
    0.884012E-01   -0.628812E-06    0.154015E-21
    0.884013E-01   -0.568077E-06    0.139139E-21
    0.884014E-01   -0.512635E-06    0.125559E-21
    0.884016E-01   -0.462007E-06    0.113159E-21
    0.884017E-01   -0.415940E-06    0.101876E-21
    0.884017E-01   -0.374097E-06    0.916274E-22
    0.884018E-01   -0.335906E-06    0.822734E-22
    0.884019E-01   -0.301042E-06    0.737340E-22
    0.884020E-01   -0.269399E-06    0.659838E-22
    0.884020E-01   -0.240641E-06    0.589401E-22
    0.884011E-01   -0.713419E-06    0.174737E-21
    0.884012E-01   -0.644878E-06    0.157950E-21
    0.884013E-01   -0.582595E-06    0.142695E-21
    0.884015E-01   -0.525729E-06    0.128767E-21
    0.884016E-01   -0.473792E-06    0.116046E-21
    0.884017E-01   -0.426555E-06    0.104476E-21
    0.884018E-01   -0.383670E-06    0.939720E-22
    0.884018E-01   -0.344484E-06    0.843742E-22
    0.884019E-01   -0.308671E-06    0.756026E-22
    0.884020E-01   -0.276209E-06    0.676517E-22
    0.884020E-01   -0.246720E-06    0.604289E-22
    0.884011E-01   -0.731191E-06    0.179090E-21
    0.884012E-01   -0.660951E-06    0.161886E-21
    0.884014E-01   -0.597128E-06    0.146254E-21
    0.884015E-01   -0.538838E-06    0.131977E-21
    0.884016E-01   -0.485577E-06    0.118932E-21
    0.884017E-01   -0.437167E-06    0.107075E-21
    0.884018E-01   -0.393257E-06    0.963202E-22
    0.884019E-01   -0.353075E-06    0.864783E-22
    0.884019E-01   -0.316294E-06    0.774698E-22
    0.884020E-01   -0.283035E-06    0.693236E-22
    0.884021E-01   -0.252812E-06    0.619211E-22
    0.884011E-01   -0.749369E-06    0.183542E-21
    0.884013E-01   -0.677206E-06    0.165868E-21
    0.884014E-01   -0.611371E-06    0.149743E-21
    0.884015E-01   -0.551298E-06    0.135029E-21
    0.884016E-01   -0.496486E-06    0.121604E-21
    0.884017E-01   -0.446723E-06    0.109416E-21
    0.884018E-01   -0.401348E-06    0.983019E-22
    0.884019E-01   -0.360279E-06    0.882428E-22
    0.884019E-01   -0.323081E-06    0.791321E-22
    0.884020E-01   -0.289013E-06    0.707878E-22
    0.884021E-01   -0.258597E-06    0.633379E-22
</DataArray>
</PointData>
<CellData>
<DataArray Name="DP" type="Float64" format="ascii" NumberOfComponents="1">
      0.000000E+0000
      0.000000E+0000
      0.000000E+0000
      0.000000E+0000
      0.000000E+0000
      0.000000E+0000
      0.000000E+0000
      0.000000E+0000
      0.000000E+0000
      0.000000E+0000
      0.000000E+0000
      0.000000E+0000
      0.000000E+0000
      0.000000E+0000
      0.000000E+0000
      0.000000E+0000
      0.000000E+0000
      0.000000E+0000
      0.000000E+0000
      0.000000E+0000
      0.000000E+0000
      0.000000E+0000
      0.000000E+0000
      0.000000E+0000
      0.000000E+0000
      0.000000E+0000
      0.000000E+0000
      0.000000E+0000
      0.000000E+0000
      0.000000E+0000
      0.000000E+0000
      0.000000E+0000
      0.000000E+0000
      0.000000E+0000
      0.000000E+0000
      0.000000E+0000
      0.000000E+0000
      0.000000E+0000
      0.000000E+0000
      0.000000E+0000
      0.000000E+0000
      0.000000E+0000
      0.000000E+0000
      0.000000E+0000
      0.000000E+0000
      0.000000E+0000
      0.000000E+0000
      0.000000E+0000
      0.000000E+0000
      0.000000E+0000
      0.000000E+0000
      0.000000E+0000
      0.000000E+0000
      0.000000E+0000
      0.000000E+0000
      0.000000E+0000
      0.000000E+0000
      0.000000E+0000
      0.000000E+0000
      0.000000E+0000
      0.000000E+0000
      0.000000E+0000
      0.000000E+0000
      0.000000E+0000
      0.000000E+0000
      0.000000E+0000
      0.000000E+0000
      0.000000E+0000
      0.000000E+0000
      0.000000E+0000
      0.000000E+0000
      0.000000E+0000
      0.000000E+0000
      0.000000E+0000
      0.000000E+0000
      0.000000E+0000
      0.000000E+0000
      0.000000E+0000
      0.000000E+0000
      0.000000E+0000
      0.000000E+0000
      0.000000E+0000
      0.000000E+0000
      0.000000E+0000
      0.000000E+0000
      0.000000E+0000
      0.000000E+0000
      0.000000E+0000
      0.000000E+0000
      0.000000E+0000
      0.000000E+0000
      0.000000E+0000
      0.000000E+0000
      0.000000E+0000
      0.000000E+0000
      0.000000E+0000
      0.000000E+0000
      0.000000E+0000
      0.000000E+0000
      0.000000E+0000
</DataArray>
<DataArray Name="P" type="Float64" format="ascii" NumberOfComponents="1">
     -0.664378E+0000
     -0.680266E+0000
     -0.696316E+0000
     -0.712525E+0000
     -0.728896E+0000
     -0.745429E+0000
     -0.762127E+0000
     -0.778990E+0000
     -0.796023E+0000
     -0.813227E+0000
     -0.664378E+0000
     -0.680267E+0000
     -0.696316E+0000
     -0.712525E+0000
     -0.728895E+0000
     -0.745429E+0000
     -0.762126E+0000
     -0.778990E+0000
     -0.796023E+0000
     -0.813227E+0000
     -0.664379E+0000
     -0.680267E+0000
     -0.696316E+0000
     -0.712524E+0000
     -0.728895E+0000
     -0.745428E+0000
     -0.762126E+0000
     -0.778990E+0000
     -0.796023E+0000
     -0.813227E+0000
     -0.664379E+0000
     -0.680268E+0000
     -0.696316E+0000
     -0.712524E+0000
     -0.728894E+0000
     -0.745428E+0000
     -0.762126E+0000
     -0.778990E+0000
     -0.796023E+0000
     -0.813227E+0000
     -0.664380E+0000
     -0.680268E+0000
     -0.696316E+0000
     -0.712524E+0000
     -0.728894E+0000
     -0.745427E+0000
     -0.762125E+0000
     -0.778990E+0000
     -0.796023E+0000
     -0.813227E+0000
     -0.664380E+0000
     -0.680268E+0000
     -0.696316E+0000
     -0.712524E+0000
     -0.728894E+0000
     -0.745427E+0000
     -0.762125E+0000
     -0.778989E+0000
     -0.796023E+0000
     -0.813227E+0000
     -0.664381E+0000
     -0.680269E+0000
     -0.696316E+0000
     -0.712524E+0000
     -0.728894E+0000
     -0.745427E+0000
     -0.762125E+0000
     -0.778989E+0000
     -0.796023E+0000
     -0.813226E+0000
     -0.664381E+0000
     -0.680269E+0000
     -0.696316E+0000
     -0.712524E+0000
     -0.728893E+0000
     -0.745426E+0000
     -0.762124E+0000
     -0.778989E+0000
     -0.796023E+0000
     -0.813226E+0000
     -0.664382E+0000
     -0.680269E+0000
     -0.696316E+0000
     -0.712523E+0000
     -0.728893E+0000
     -0.745426E+0000
     -0.762124E+0000
     -0.778989E+0000
     -0.796023E+0000
     -0.813226E+0000
     -0.664382E+0000
     -0.680269E+0000
     -0.696316E+0000
     -0.712523E+0000
     -0.728893E+0000
     -0.745426E+0000
     -0.762124E+0000
     -0.778989E+0000
     -0.796022E+0000
     -0.813226E+0000
</DataArray>
<DataArray Name="RHO" type="Float64" format="ascii" NumberOfComponents="1">
      0.117197E+0001
      0.117197E+0001
      0.117197E+0001
      0.117197E+0001
      0.117197E+0001
      0.117197E+0001
      0.117197E+0001
      0.117197E+0001
      0.117197E+0001
      0.117197E+0001
      0.117197E+0001
      0.117197E+0001
      0.117197E+0001
      0.117197E+0001
      0.117197E+0001
      0.117197E+0001
      0.117197E+0001
      0.117197E+0001
      0.117197E+0001
      0.117197E+0001
      0.117197E+0001
      0.117197E+0001
      0.117197E+0001
      0.117197E+0001
      0.117197E+0001
      0.117197E+0001
      0.117197E+0001
      0.117197E+0001
      0.117197E+0001
      0.117197E+0001
      0.117197E+0001
      0.117197E+0001
      0.117197E+0001
      0.117197E+0001
      0.117197E+0001
      0.117197E+0001
      0.117197E+0001
      0.117197E+0001
      0.117197E+0001
      0.117197E+0001
      0.117197E+0001
      0.117197E+0001
      0.117197E+0001
      0.117197E+0001
      0.117197E+0001
      0.117197E+0001
      0.117197E+0001
      0.117197E+0001
      0.117197E+0001
      0.117197E+0001
      0.117197E+0001
      0.117197E+0001
      0.117197E+0001
      0.117197E+0001
      0.117197E+0001
      0.117197E+0001
      0.117197E+0001
      0.117197E+0001
      0.117197E+0001
      0.117197E+0001
      0.117197E+0001
      0.117197E+0001