<?xml version="1.0"?>
<VTKFile type="StructuredGrid" version="0.1" byte_order="LittleEndian">
<StructuredGrid WholeExtent="           0          10           0          10           0           1">
<Piece Extent="           0          10           0          10           0           1">
<Points>
<DataArray NumberOfComponents="3" type="Float64" format="ascii">
    0.000000E+00    0.000000E+00    0.000000E+00
    0.253324E-03    0.000000E+00    0.000000E+00
    0.509182E-03    0.000000E+00    0.000000E+00
    0.767598E-03    0.000000E+00    0.000000E+00
    0.102860E-02    0.000000E+00    0.000000E+00
    0.129221E-02    0.000000E+00    0.000000E+00
    0.155845E-02    0.000000E+00    0.000000E+00
    0.182736E-02    0.000000E+00    0.000000E+00
    0.209896E-02    0.000000E+00    0.000000E+00
    0.237327E-02    0.000000E+00    0.000000E+00
    0.265033E-02    0.000000E+00    0.000000E+00
    0.000000E+00    0.288897E-03    0.000000E+00
    0.253324E-03    0.288897E-03    0.000000E+00
    0.509182E-03    0.288897E-03    0.000000E+00
    0.767598E-03    0.288897E-03    0.000000E+00
    0.102860E-02    0.288897E-03    0.000000E+00
    0.129221E-02    0.288897E-03    0.000000E+00
    0.155845E-02    0.288897E-03    0.000000E+00
    0.182736E-02    0.288897E-03    0.000000E+00
    0.209896E-02    0.288897E-03    0.000000E+00
    0.237327E-02    0.288897E-03    0.000000E+00
    0.265033E-02    0.288897E-03    0.000000E+00
    0.000000E+00    0.572017E-03    0.000000E+00
    0.253324E-03    0.572017E-03    0.000000E+00
    0.509182E-03    0.572017E-03    0.000000E+00
    0.767598E-03    0.572017E-03    0.000000E+00
    0.102860E-02    0.572017E-03    0.000000E+00
    0.129221E-02    0.572017E-03    0.000000E+00
    0.155845E-02    0.572017E-03    0.000000E+00
    0.182736E-02    0.572017E-03    0.000000E+00
    0.209896E-02    0.572017E-03    0.000000E+00
    0.237327E-02    0.572017E-03    0.000000E+00
    0.265033E-02    0.572017E-03    0.000000E+00
    0.000000E+00    0.849473E-03    0.000000E+00
    0.253324E-03    0.849473E-03    0.000000E+00
    0.509182E-03    0.849473E-03    0.000000E+00
    0.767598E-03    0.849473E-03    0.000000E+00
    0.102860E-02    0.849473E-03    0.000000E+00
    0.129221E-02    0.849473E-03    0.000000E+00
    0.155845E-02    0.849473E-03    0.000000E+00
    0.182736E-02    0.849473E-03    0.000000E+00
    0.209896E-02    0.849473E-03    0.000000E+00
    0.237327E-02    0.849473E-03    0.000000E+00
    0.265033E-02    0.849473E-03    0.000000E+00
    0.000000E+00    0.112138E-02    0.000000E+00
    0.253324E-03    0.112138E-02    0.000000E+00
    0.509182E-03    0.112138E-02    0.000000E+00
    0.767598E-03    0.112138E-02    0.000000E+00
    0.102860E-02    0.112138E-02    0.000000E+00
    0.129221E-02    0.112138E-02    0.000000E+00
    0.155845E-02    0.112138E-02    0.000000E+00
    0.182736E-02    0.112138E-02    0.000000E+00
    0.209896E-02    0.112138E-02    0.000000E+00
    0.237327E-02    0.112138E-02    0.000000E+00
    0.265033E-02    0.112138E-02    0.000000E+00
    0.000000E+00    0.138785E-02    0.000000E+00
    0.253324E-03    0.138785E-02    0.000000E+00
    0.509182E-03    0.138785E-02    0.000000E+00
    0.767598E-03    0.138785E-02    0.000000E+00
    0.102860E-02    0.138785E-02    0.000000E+00
    0.129221E-02    0.138785E-02    0.000000E+00
    0.155845E-02    0.138785E-02    0.000000E+00
    0.182736E-02    0.138785E-02    0.000000E+00
    0.209896E-02    0.138785E-02    0.000000E+00
    0.237327E-02    0.138785E-02    0.000000E+00
    0.265033E-02    0.138785E-02    0.000000E+00
    0.000000E+00    0.164899E-02    0.000000E+00
    0.253324E-03    0.164899E-02    0.000000E+00
    0.509182E-03    0.164899E-02    0.000000E+00
    0.767598E-03    0.164899E-02    0.000000E+00
    0.102860E-02    0.164899E-02    0.000000E+00
    0.129221E-02    0.164899E-02    0.000000E+00
    0.155845E-02    0.164899E-02    0.000000E+00
    0.182736E-02    0.164899E-02    0.000000E+00
    0.209896E-02    0.164899E-02    0.000000E+00
    0.237327E-02    0.164899E-02    0.000000E+00
    0.265033E-02    0.164899E-02    0.000000E+00
    0.000000E+00    0.190491E-02    0.000000E+00
    0.253324E-03    0.190491E-02    0.000000E+00
    0.509182E-03    0.190491E-02    0.000000E+00
    0.767598E-03    0.190491E-02    0.000000E+00
    0.102860E-02    0.190491E-02    0.000000E+00
    0.129221E-02    0.190491E-02    0.000000E+00
    0.155845E-02    0.190491E-02    0.000000E+00
    0.182736E-02    0.190491E-02    0.000000E+00
    0.209896E-02    0.190491E-02    0.000000E+00
    0.237327E-02    0.190491E-02    0.000000E+00
    0.265033E-02    0.190491E-02    0.000000E+00
    0.000000E+00    0.215571E-02    0.000000E+00
    0.253324E-03    0.215571E-02    0.000000E+00
    0.509182E-03    0.215571E-02    0.000000E+00
    0.767598E-03    0.215571E-02    0.000000E+00
    0.102860E-02    0.215571E-02    0.000000E+00
    0.129221E-02    0.215571E-02    0.000000E+00
    0.155845E-02    0.215571E-02    0.000000E+00
    0.182736E-02    0.215571E-02    0.000000E+00
    0.209896E-02    0.215571E-02    0.000000E+00
    0.237327E-02    0.215571E-02    0.000000E+00
    0.265033E-02    0.215571E-02    0.000000E+00
    0.000000E+00    0.240149E-02    0.000000E+00
    0.253324E-03    0.240149E-02    0.000000E+00
    0.509182E-03    0.240149E-02    0.000000E+00
    0.767598E-03    0.240149E-02    0.000000E+00
    0.102860E-02    0.240149E-02    0.000000E+00
    0.129221E-02    0.240149E-02    0.000000E+00
    0.155845E-02    0.240149E-02    0.000000E+00
    0.182736E-02    0.240149E-02    0.000000E+00
    0.209896E-02    0.240149E-02    0.000000E+00
    0.237327E-02    0.240149E-02    0.000000E+00
    0.265033E-02    0.240149E-02    0.000000E+00
    0.000000E+00    0.264236E-02    0.000000E+00
    0.253324E-03    0.264236E-02    0.000000E+00
    0.509182E-03    0.264236E-02    0.000000E+00
    0.767598E-03    0.264236E-02    0.000000E+00
    0.102860E-02    0.264236E-02    0.000000E+00
    0.129221E-02    0.264236E-02    0.000000E+00
    0.155845E-02    0.264236E-02    0.000000E+00
    0.182736E-02    0.264236E-02    0.000000E+00
    0.209896E-02    0.264236E-02    0.000000E+00
    0.237327E-02    0.264236E-02    0.000000E+00
    0.265033E-02    0.264236E-02    0.000000E+00
    0.000000E+00    0.000000E+00    0.160000E-02
    0.253324E-03    0.000000E+00    0.160000E-02
    0.509182E-03    0.000000E+00    0.160000E-02
    0.767598E-03    0.000000E+00    0.160000E-02
    0.102860E-02    0.000000E+00    0.160000E-02
    0.129221E-02    0.000000E+00    0.160000E-02
    0.155845E-02    0.000000E+00    0.160000E-02
    0.182736E-02    0.000000E+00    0.160000E-02
    0.209896E-02    0.000000E+00    0.160000E-02
    0.237327E-02    0.000000E+00    0.160000E-02
    0.265033E-02    0.000000E+00    0.160000E-02
    0.000000E+00    0.288897E-03    0.160000E-02
    0.253324E-03    0.288897E-03    0.160000E-02
    0.509182E-03    0.288897E-03    0.160000E-02
    0.767598E-03    0.288897E-03    0.160000E-02
    0.102860E-02    0.288897E-03    0.160000E-02
    0.129221E-02    0.288897E-03    0.160000E-02
    0.155845E-02    0.288897E-03    0.160000E-02
    0.182736E-02    0.288897E-03    0.160000E-02
    0.209896E-02    0.288897E-03    0.160000E-02
    0.237327E-02    0.288897E-03    0.160000E-02
    0.265033E-02    0.288897E-03    0.160000E-02
    0.000000E+00    0.572017E-03    0.160000E-02
    0.253324E-03    0.572017E-03    0.160000E-02
    0.509182E-03    0.572017E-03    0.160000E-02
    0.767598E-03    0.572017E-03    0.160000E-02
    0.102860E-02    0.572017E-03    0.160000E-02
    0.129221E-02    0.572017E-03    0.160000E-02
    0.155845E-02    0.572017E-03    0.160000E-02
    0.182736E-02    0.572017E-03    0.160000E-02
    0.209896E-02    0.572017E-03    0.160000E-02
    0.237327E-02    0.572017E-03    0.160000E-02
    0.265033E-02    0.572017E-03    0.160000E-02
    0.000000E+00    0.849473E-03    0.160000E-02
    0.253324E-03    0.849473E-03    0.160000E-02
    0.509182E-03    0.849473E-03    0.160000E-02
    0.767598E-03    0.849473E-03    0.160000E-02
    0.102860E-02    0.849473E-03    0.160000E-02
    0.129221E-02    0.849473E-03    0.160000E-02
    0.155845E-02    0.849473E-03    0.160000E-02
    0.182736E-02    0.849473E-03    0.160000E-02
    0.209896E-02    0.849473E-03    0.160000E-02
    0.237327E-02    0.849473E-03    0.160000E-02
    0.265033E-02    0.849473E-03    0.160000E-02
    0.000000E+00    0.112138E-02    0.160000E-02
    0.253324E-03    0.112138E-02    0.160000E-02
    0.509182E-03    0.112138E-02    0.160000E-02
    0.767598E-03    0.112138E-02    0.160000E-02
    0.102860E-02    0.112138E-02    0.160000E-02
    0.129221E-02    0.112138E-02    0.160000E-02
    0.155845E-02    0.112138E-02    0.160000E-02
    0.182736E-02    0.112138E-02    0.160000E-02
    0.209896E-02    0.112138E-02    0.160000E-02
    0.237327E-02    0.112138E-02    0.160000E-02
    0.265033E-02    0.112138E-02    0.160000E-02
    0.000000E+00    0.138785E-02    0.160000E-02
    0.253324E-03    0.138785E-02    0.160000E-02
    0.509182E-03    0.138785E-02    0.160000E-02
    0.767598E-03    0.138785E-02    0.160000E-02
    0.102860E-02    0.138785E-02    0.160000E-02
    0.129221E-02    0.138785E-02    0.160000E-02
    0.155845E-02    0.138785E-02    0.160000E-02
    0.182736E-02    0.138785E-02    0.160000E-02
    0.209896E-02    0.138785E-02    0.160000E-02
    0.237327E-02    0.138785E-02    0.160000E-02
    0.265033E-02    0.138785E-02    0.160000E-02
    0.000000E+00    0.164899E-02    0.160000E-02
    0.253324E-03    0.164899E-02    0.160000E-02
    0.509182E-03    0.164899E-02    0.160000E-02
    0.767598E-03    0.164899E-02    0.160000E-02
    0.102860E-02    0.164899E-02    0.160000E-02
    0.129221E-02    0.164899E-02    0.160000E-02
    0.155845E-02    0.164899E-02    0.160000E-02
    0.182736E-02    0.164899E-02    0.160000E-02
    0.209896E-02    0.164899E-02    0.160000E-02
    0.237327E-02    0.164899E-02    0.160000E-02
    0.265033E-02    0.164899E-02    0.160000E-02
    0.000000E+00    0.190491E-02    0.160000E-02
    0.253324E-03    0.190491E-02    0.160000E-02
    0.509182E-03    0.190491E-02    0.160000E-02
    0.767598E-03    0.190491E-02    0.160000E-02
    0.102860E-02    0.190491E-02    0.160000E-02
    0.129221E-02    0.190491E-02    0.160000E-02
    0.155845E-02    0.190491E-02    0.160000E-02
    0.182736E-02    0.190491E-02    0.160000E-02
    0.209896E-02    0.190491E-02    0.160000E-02
    0.237327E-02    0.190491E-02    0.160000E-02
    0.265033E-02    0.190491E-02    0.160000E-02
    0.000000E+00    0.215571E-02    0.160000E-02
    0.253324E-03    0.215571E-02    0.160000E-02
    0.509182E-03    0.215571E-02    0.160000E-02
    0.767598E-03    0.215571E-02    0.160000E-02
    0.102860E-02    0.215571E-02    0.160000E-02
    0.129221E-02    0.215571E-02    0.160000E-02
    0.155845E-02    0.215571E-02    0.160000E-02
    0.182736E-02    0.215571E-02    0.160000E-02
    0.209896E-02    0.215571E-02    0.160000E-02
    0.237327E-02    0.215571E-02    0.160000E-02
    0.265033E-02    0.215571E-02    0.160000E-02
    0.000000E+00    0.240149E-02    0.160000E-02
    0.253324E-03    0.240149E-02    0.160000E-02
    0.509182E-03    0.240149E-02    0.160000E-02
    0.767598E-03    0.240149E-02    0.160000E-02
    0.102860E-02    0.240149E-02    0.160000E-02
    0.129221E-02    0.240149E-02    0.160000E-02
    0.155845E-02    0.240149E-02    0.160000E-02
    0.182736E-02    0.240149E-02    0.160000E-02
    0.209896E-02    0.240149E-02    0.160000E-02
    0.237327E-02    0.240149E-02    0.160000E-02
    0.265033E-02    0.240149E-02    0.160000E-02
    0.000000E+00    0.264236E-02    0.160000E-02
    0.253324E-03    0.264236E-02    0.160000E-02
    0.509182E-03    0.264236E-02    0.160000E-02
    0.767598E-03    0.264236E-02    0.160000E-02
    0.102860E-02    0.264236E-02    0.160000E-02
    0.129221E-02    0.264236E-02    0.160000E-02
    0.155845E-02    0.264236E-02    0.160000E-02
    0.182736E-02    0.264236E-02    0.160000E-02
    0.209896E-02    0.264236E-02    0.160000E-02
    0.237327E-02    0.264236E-02    0.160000E-02
    0.265033E-02    0.264236E-02    0.160000E-02
</DataArray>
</Points>
<PointData>
<DataArray Name="Velocity" type="Float64" format="ascii" NumberOfComponents="3">
    0.398000E-01    0.000000E+00    0.000000E+00
    0.399153E-01    0.000000E+00    0.000000E+00
    0.404732E-01    0.000000E+00    0.000000E+00
    0.414169E-01    0.000000E+00    0.000000E+00
    0.427477E-01    0.000000E+00    0.000000E+00
    0.443509E-01    0.000000E+00    0.000000E+00
    0.461638E-01    0.000000E+00    0.000000E+00
    0.481164E-01    0.000000E+00    0.000000E+00
    0.501346E-01    0.000000E+00    0.000000E+00
    0.521414E-01    0.000000E+00    0.000000E+00
    0.540597E-01    0.000000E+00    0.000000E+00
    0.398000E-01   -0.288603E-04    0.000000E+00
    0.399095E-01   -0.242510E-03    0.000000E+00
    0.404677E-01   -0.487911E-03    0.000000E+00
    0.414335E-01   -0.692952E-03    0.000000E+00
    0.427676E-01   -0.853713E-03    0.000000E+00
    0.443784E-01   -0.983341E-03    0.000000E+00
    0.462009E-01   -0.107719E-02    0.000000E+00
    0.481646E-01   -0.113400E-02    0.000000E+00
    0.501953E-01   -0.115406E-02    0.000000E+00
    0.522160E-01   -0.113880E-02    0.000000E+00
    0.541492E-01   -0.109090E-02    0.000000E+00
    0.398000E-01   -0.649318E-04    0.000000E+00
    0.399042E-01   -0.502768E-03    0.000000E+00
    0.404695E-01   -0.964912E-03    0.000000E+00
    0.414705E-01   -0.136651E-02    0.000000E+00
    0.428219E-01   -0.169919E-02    0.000000E+00
    0.444564E-01   -0.196083E-02    0.000000E+00
    0.463072E-01   -0.214927E-02    0.000000E+00
    0.483034E-01   -0.226383E-02    0.000000E+00
    0.503707E-01   -0.230543E-02    0.000000E+00
    0.524318E-01   -0.227680E-02    0.000000E+00
    0.544089E-01   -0.218303E-02    0.000000E+00
    0.398000E-01   -0.991012E-04    0.000000E+00
    0.399073E-01   -0.760383E-03    0.000000E+00
    0.404893E-01   -0.145126E-02    0.000000E+00
    0.415198E-01   -0.205253E-02    0.000000E+00
    0.429047E-01   -0.255277E-02    0.000000E+00
    0.445782E-01   -0.294655E-02    0.000000E+00
    0.464740E-01   -0.323127E-02    0.000000E+00
    0.485219E-01   -0.340622E-02    0.000000E+00
    0.506480E-01   -0.347258E-02    0.000000E+00
    0.527747E-01   -0.343400E-02    0.000000E+00
    0.548228E-01   -0.329746E-02    0.000000E+00
    0.398000E-01   -0.133773E-03    0.000000E+00
    0.399139E-01   -0.102374E-02    0.000000E+00
    0.405189E-01   -0.194971E-02    0.000000E+00
    0.415847E-01   -0.275367E-02    0.000000E+00
    0.430121E-01   -0.342253E-02    0.000000E+00
    0.447356E-01   -0.395049E-02    0.000000E+00
    0.466899E-01   -0.433495E-02    0.000000E+00
    0.488064E-01   -0.457495E-02    0.000000E+00
    0.510113E-01   -0.467133E-02    0.000000E+00
    0.532266E-01   -0.462792E-02    0.000000E+00
    0.553715E-01   -0.445289E-02    0.000000E+00
    0.398000E-01   -0.169932E-03    0.000000E+00
    0.399235E-01   -0.129720E-02    0.000000E+00
    0.405562E-01   -0.246432E-02    0.000000E+00
    0.416614E-01   -0.347362E-02    0.000000E+00
    0.431361E-01   -0.431319E-02    0.000000E+00
    0.449162E-01   -0.497905E-02    0.000000E+00
    0.469392E-01   -0.546901E-02    0.000000E+00
    0.491383E-01   -0.578121E-02    0.000000E+00
    0.514404E-01   -0.591519E-02    0.000000E+00
    0.537660E-01   -0.587390E-02    0.000000E+00
    0.560318E-01   -0.566582E-02    0.000000E+00
    0.398000E-01   -0.208450E-03    0.000000E+00
    0.399361E-01   -0.158396E-02    0.000000E+00
    0.405978E-01   -0.299661E-02    0.000000E+00
    0.417408E-01   -0.421222E-02    0.000000E+00
    0.432613E-01   -0.522515E-02    0.000000E+00
    0.451002E-01   -0.603509E-02    0.000000E+00
    0.471996E-01   -0.663960E-02    0.000000E+00
    0.494945E-01   -0.703438E-02    0.000000E+00
    0.519113E-01   -0.721608E-02    0.000000E+00
    0.543681E-01   -0.718556E-02    0.000000E+00
    0.567777E-01   -0.695081E-02    0.000000E+00
    0.398000E-01   -0.250282E-03    0.000000E+00
    0.399510E-01   -0.188509E-02    0.000000E+00
    0.406340E-01   -0.354241E-02    0.000000E+00
    0.418027E-01   -0.496302E-02    0.000000E+00
    0.433607E-01   -0.615429E-02    0.000000E+00
    0.452582E-01   -0.711918E-02    0.000000E+00
    0.474419E-01   -0.785213E-02    0.000000E+00
    0.498472E-01   -0.834359E-02    0.000000E+00
    0.523975E-01   -0.858544E-02    0.000000E+00
    0.550065E-01   -0.857542E-02    0.000000E+00
    0.575817E-01   -0.832050E-02    0.000000E+00
    0.398000E-01   -0.295954E-03    0.000000E+00
    0.399602E-01   -0.219514E-02    0.000000E+00
    0.406364E-01   -0.408661E-02    0.000000E+00
    0.418061E-01   -0.571193E-02    0.000000E+00
    0.433910E-01   -0.709418E-02    0.000000E+00
    0.453507E-01   -0.823322E-02    0.000000E+00
    0.476327E-01   -0.911451E-02    0.000000E+00
    0.501679E-01   -0.972002E-02    0.000000E+00
    0.528734E-01   -0.100355E-01    0.000000E+00
    0.556563E-01   -0.100553E-01    0.000000E+00
    0.584172E-01   -0.978543E-02    0.000000E+00
    0.398000E-01   -0.342869E-03    0.000000E+00
    0.399247E-01   -0.249092E-02    0.000000E+00
    0.405335E-01   -0.459769E-02    0.000000E+00
    0.416775E-01   -0.644158E-02    0.000000E+00
    0.432922E-01   -0.804411E-02    0.000000E+00
    0.453341E-01   -0.938722E-02    0.000000E+00
    0.477409E-01   -0.104414E-01    0.000000E+00
    0.504335E-01   -0.111789E-01    0.000000E+00
    0.533197E-01   -0.115798E-01    0.000000E+00
    0.562982E-01   -0.116359E-01    0.000000E+00
    0.592625E-01   -0.113533E-01    0.000000E+00
    0.398000E-01   -0.374271E-03    0.000000E+00
    0.396872E-01   -0.270588E-02    0.000000E+00
    0.401706E-01   -0.503475E-02    0.000000E+00
    0.413115E-01   -0.715207E-02    0.000000E+00
    0.430029E-01   -0.902528E-02    0.000000E+00
    0.451753E-01   -0.106078E-01    0.000000E+00
    0.477496E-01   -0.118574E-01    0.000000E+00
    0.506348E-01   -0.127398E-01    0.000000E+00
    0.537290E-01   -0.132322E-01    0.000000E+00
    0.569228E-01   -0.133257E-01    0.000000E+00
    0.601035E-01   -0.130279E-01    0.000000E+00
    0.398000E-01    0.000000E+00    0.000000E+00
    0.399153E-01    0.000000E+00    0.000000E+00
    0.404732E-01    0.000000E+00    0.000000E+00
    0.414169E-01    0.000000E+00    0.000000E+00
    0.427477E-01    0.000000E+00    0.000000E+00
    0.443509E-01    0.000000E+00    0.000000E+00
    0.461638E-01    0.000000E+00    0.000000E+00
    0.481164E-01    0.000000E+00    0.000000E+00
    0.501346E-01    0.000000E+00    0.000000E+00
    0.521414E-01    0.000000E+00    0.000000E+00
    0.540597E-01    0.000000E+00    0.000000E+00
    0.398000E-01    0.000000E+00    0.000000E+00
    0.399095E-01   -0.242510E-03    0.593978E-19
    0.404677E-01   -0.487911E-03    0.119504E-18
    0.414335E-01   -0.692952E-03    0.169724E-18
    0.427676E-01   -0.853713E-03    0.209099E-18
    0.443784E-01   -0.983341E-03    0.240849E-18
    0.462009E-01   -0.107719E-02    0.263835E-18
    0.481646E-01   -0.113400E-02    0.277750E-18
    0.501953E-01   -0.115406E-02    0.282662E-18
    0.522160E-01   -0.113880E-02    0.278926E-18
    0.541492E-01   -0.109090E-02    0.267193E-18
    0.398000E-01    0.000000E+00    0.000000E+00
    0.399042E-01   -0.502768E-03    0.123143E-18
    0.404695E-01   -0.964912E-03    0.236335E-18
    0.414705E-01   -0.136651E-02    0.334698E-18
    0.428219E-01   -0.169919E-02    0.416182E-18
    0.444564E-01   -0.196083E-02    0.480264E-18
    0.463072E-01   -0.214927E-02    0.526420E-18
    0.483034E-01   -0.226383E-02    0.554479E-18
    0.503707E-01   -0.230543E-02    0.564667E-18
    0.524318E-01   -0.227680E-02    0.557656E-18
    0.544089E-01   -0.218303E-02    0.534689E-18
    0.398000E-01    0.000000E+00    0.000000E+00
    0.399073E-01   -0.760383E-03    0.186240E-18
    0.404893E-01   -0.145126E-02    0.355457E-18
    0.415198E-01   -0.205253E-02    0.502725E-18
    0.429047E-01   -0.255277E-02    0.625248E-18
    0.445782E-01   -0.294655E-02    0.721697E-18
    0.464740E-01   -0.323127E-02    0.791432E-18
    0.485219E-01   -0.340622E-02    0.834283E-18
    0.506480E-01   -0.347258E-02    0.850537E-18
    0.527747E-01   -0.343400E-02    0.841088E-18
    0.548228E-01   -0.329746E-02    0.807645E-18
    0.398000E-01    0.000000E+00    0.000000E+00
    0.399139E-01   -0.102374E-02    0.250745E-18
    0.405189E-01   -0.194971E-02    0.477542E-18
    0.415847E-01   -0.275367E-02    0.674455E-18
    0.430121E-01   -0.342253E-02    0.838278E-18
    0.447356E-01   -0.395049E-02    0.967591E-18
    0.466899E-01   -0.433495E-02    0.106176E-17
    0.488064E-01   -0.457495E-02    0.112054E-17
    0.510113E-01   -0.467133E-02    0.114415E-17
    0.532266E-01   -0.462792E-02    0.113351E-17
    0.553715E-01   -0.445289E-02    0.109064E-17
    0.398000E-01    0.000000E+00    0.000000E+00
    0.399235E-01   -0.129720E-02    0.317723E-18
    0.405562E-01   -0.246432E-02    0.603583E-18
    0.416614E-01   -0.347362E-02    0.850792E-18
    0.431361E-01   -0.431319E-02    0.105643E-17
    0.449162E-01   -0.497905E-02    0.121952E-17
    0.469392E-01   -0.546901E-02    0.133952E-17
    0.491383E-01   -0.578121E-02    0.141599E-17
    0.514404E-01   -0.591519E-02    0.144880E-17
    0.537660E-01   -0.587390E-02    0.143869E-17
    0.560318E-01   -0.566582E-02    0.138773E-17
    0.398000E-01    0.000000E+00    0.000000E+00
    0.399361E-01   -0.158396E-02    0.387959E-18
    0.405978E-01   -0.299661E-02    0.733958E-18
    0.417408E-01   -0.421222E-02    0.103170E-17
    0.432613E-01   -0.522515E-02    0.127979E-17
    0.451002E-01   -0.603509E-02    0.147817E-17
    0.471996E-01   -0.663960E-02    0.162623E-17
    0.494945E-01   -0.703438E-02    0.172293E-17
    0.519113E-01   -0.721608E-02    0.176743E-17
    0.543681E-01   -0.718556E-02    0.175995E-17
    0.567777E-01   -0.695081E-02    0.170246E-17
    0.398000E-01    0.000000E+00    0.000000E+00
    0.399510E-01   -0.188509E-02    0.461713E-18
    0.406340E-01   -0.354241E-02    0.867641E-18
    0.418027E-01   -0.496302E-02    0.121559E-17
    0.433607E-01   -0.615429E-02    0.150737E-17
    0.452582E-01   -0.711918E-02    0.174370E-17
    0.474419E-01   -0.785213E-02    0.192322E-17
    0.498472E-01   -0.834359E-02    0.204359E-17
    0.523975E-01   -0.858544E-02    0.210283E-17
    0.550065E-01   -0.857542E-02    0.210037E-17
    0.575817E-01   -0.832050E-02    0.203793E-17
    0.398000E-01    0.000000E+00    0.000000E+00
    0.399602E-01   -0.219514E-02    0.537655E-18
    0.406364E-01   -0.408661E-02    0.100093E-17
    0.418061E-01   -0.571193E-02    0.139902E-17
    0.433910E-01   -0.709418E-02    0.173757E-17
    0.453507E-01   -0.823322E-02    0.201656E-17
    0.476327E-01   -0.911451E-02    0.223241E-17
    0.501679E-01   -0.972002E-02    0.238072E-17
    0.528734E-01   -0.100355E-01    0.245799E-17
    0.556563E-01   -0.100553E-01    0.246283E-17
    0.584172E-01   -0.978543E-02    0.239674E-17
    0.398000E-01    0.000000E+00    0.000000E+00
    0.399247E-01   -0.249092E-02    0.610099E-18
    0.405335E-01   -0.459769E-02    0.112611E-17
    0.416775E-01   -0.644158E-02    0.157773E-17
    0.432922E-01   -0.804411E-02    0.197024E-17
    0.453341E-01   -0.938722E-02    0.229921E-17
    0.477409E-01   -0.104414E-01    0.255741E-17
    0.504335E-01   -0.111789E-01    0.273804E-17
    0.533197E-01   -0.115798E-01    0.283624E-17
    0.562982E-01   -0.116359E-01    0.284998E-17
    0.592625E-01   -0.113533E-01    0.278077E-17
    0.398000E-01    0.000000E+00    0.000000E+00
    0.396872E-01   -0.270588E-02    0.662749E-18
    0.401706E-01   -0.503475E-02    0.123316E-17
    0.413115E-01   -0.715207E-02    0.175175E-17
    0.430029E-01   -0.902528E-02    0.221056E-17
    0.451753E-01   -0.106078E-01    0.259817E-17
    0.477496E-01   -0.118574E-01    0.290422E-17
    0.506348E-01   -0.127398E-01    0.312036E-17
    0.537290E-01   -0.132322E-01    0.324097E-17
    0.569228E-01   -0.133257E-01    0.326386E-17
    0.601035E-01   -0.130279E-01    0.319090E-17
</DataArray>
</PointData>
<CellData>
<DataArray Name="DP" type="Float64" format="ascii" NumberOfComponents="1">
      0.000000E+0000
      0.000000E+0000
      0.000000E+0000
      0.000000E+0000
      0.000000E+0000
      0.000000E+0000
      0.000000E+0000
      0.000000E+0000
      0.000000E+0000
      0.000000E+0000
      0.000000E+0000
      0.000000E+0000
      0.000000E+0000
      0.000000E+0000
      0.000000E+0000
      0.000000E+0000
      0.000000E+0000
      0.000000E+0000
      0.000000E+0000
      0.000000E+0000
      0.000000E+0000
      0.000000E+0000
      0.000000E+0000
      0.000000E+0000
      0.000000E+0000
      0.000000E+0000
      0.000000E+0000
      0.000000E+0000
      0.000000E+0000
      0.000000E+0000
      0.000000E+0000
      0.000000E+0000
      0.000000E+0000
      0.000000E+0000
      0.000000E+0000
      0.000000E+0000
      0.000000E+0000
      0.000000E+0000
      0.000000E+0000
      0.000000E+0000
      0.000000E+0000
      0.000000E+0000
      0.000000E+0000
      0.000000E+0000
      0.000000E+0000
      0.000000E+0000
      0.000000E+0000
      0.000000E+0000
      0.000000E+0000
      0.000000E+0000
      0.000000E+0000
      0.000000E+0000
      0.000000E+0000
      0.000000E+0000
      0.000000E+0000
      0.000000E+0000
      0.000000E+0000
      0.000000E+0000
      0.000000E+0000
      0.000000E+0000
      0.000000E+0000
      0.000000E+0000
      0.000000E+0000
      0.000000E+0000
      0.000000E+0000
      0.000000E+0000
      0.000000E+0000
      0.000000E+0000
      0.000000E+0000
      0.000000E+0000
      0.000000E+0000
      0.000000E+0000
      0.000000E+0000
      0.000000E+0000
      0.000000E+0000
      0.000000E+0000
      0.000000E+0000
      0.000000E+0000
      0.000000E+0000
      0.000000E+0000
      0.000000E+0000
      0.000000E+0000
      0.000000E+0000
      0.000000E+0000
      0.000000E+0000
      0.000000E+0000
      0.000000E+0000
      0.000000E+0000
      0.000000E+0000
      0.000000E+0000
      0.000000E+0000
      0.000000E+0000
      0.000000E+0000
      0.000000E+0000
      0.000000E+0000
      0.000000E+0000
      0.000000E+0000
      0.000000E+0000
      0.000000E+0000
      0.000000E+0000
</DataArray>
<DataArray Name="P" type="Float64" format="ascii" NumberOfComponents="1">
      0.622311E+0000
      0.620175E+0000
      0.617995E+0000
      0.615768E+0000
      0.613488E+0000
      0.611158E+0000
      0.608777E+0000
      0.606344E+0000
      0.603857E+0000
      0.601315E+0000
      0.622321E+0000
      0.620188E+0000
      0.618009E+0000
      0.615778E+0000
      0.613497E+0000
      0.611167E+0000
      0.608785E+0000
      0.606351E+0000
      0.603863E+0000
      0.601319E+0000
      0.622344E+0000
      0.620211E+0000
      0.618031E+0000
      0.615799E+0000
      0.613518E+0000
      0.611187E+0000
      0.608804E+0000
      0.606367E+0000
      0.603877E+0000
      0.601330E+0000
      0.622377E+0000
      0.620244E+0000
      0.618064E+0000
      0.615831E+0000
      0.613548E+0000
      0.611214E+0000
      0.608829E+0000
      0.606391E+0000
      0.603897E+0000
      0.601347E+0000
      0.622421E+0000
      0.620289E+0000
      0.618108E+0000
      0.615873E+0000
      0.613588E+0000
      0.611251E+0000
      0.608863E+0000
      0.606421E+0000
      0.603924E+0000
      0.601369E+0000
      0.622476E+0000
      0.620343E+0000
      0.618161E+0000
      0.615924E+0000
      0.613636E+0000
      0.611297E+0000
      0.608905E+0000
      0.606458E+0000
      0.603956E+0000
      0.601396E+0000
      0.622542E+0000
      0.620409E+0000
      0.618224E+0000
      0.615983E+0000
      0.613692E+0000
      0.611349E+0000
      0.608952E+0000
      0.606501E+0000
      0.603993E+0000
      0.601427E+0000
      0.622619E+0000
      0.620484E+0000
      0.618296E+0000
      0.616051E+0000
      0.613756E+0000
      0.611408E+0000
      0.609007E+0000
      0.606550E+0000
      0.604035E+0000
      0.601462E+0000
      0.622711E+0000
      0.620571E+0000
      0.618377E+0000
      0.616127E+0000
      0.613826E+0000
      0.611473E+0000
      0.609066E+0000
      0.606603E+0000
      0.604080E+0000
      0.601498E+0000
      0.622825E+0000
      0.620669E+0000
      0.618465E+0000
      0.616208E+0000
      0.613902E+0000
      0.611543E+0000
      0.609130E+0000
      0.606659E+0000
      0.604128E+0000
      0.601537E+0000
</DataArray>
<DataArray Name="RHO" type="Float64" format="ascii" NumberOfComponents="1">
      0.857268E+0000
      0.860702E+0000
      0.862577E+0000
      0.864364E+0000
      0.866313E+0000
      0.868469E+0000
      0.870914E+0000
      0.873764E+0000
      0.877170E+0000
      0.881323E+0000
      0.857293E+0000
      0.860730E+0000
      0.862583E+0000
      0.864393E+0000
      0.866343E+0000
      0.868498E+0000
      0.870939E+0000
      0.873782E+0000
      0.877178E+0000
      0.881315E+0000
      0.857313E+0000
      0.860779E+0000
      0.862642E+0000
      0.864457E+0000
      0.866409E+0000
      0.868562E+0000
      0.870998E+0000
      0.873830E+0000
      0.877206E+0000
      0.881313E+0000
      0.857346E+0000
      0.860863E+0000
      0.862741E+0000
      0.864565E+0000
      0.866520E+0000
      0.868674E+0000
      0.871105E+0000
      0.873926E+0000
      0.877280E+0000
      0.881347E+0000
      0.857398E+0000
      0.860993E+0000
      0.862894E+0000
      0.864730E+0000
      0.866694E+0000
      0.868852E+0000
      0.871284E+0000
      0.874098E+0000
      0.877433E+0000
      0.881463E+0000
      0.857475E+0000
      0.861185E+0000
      0.863117E+0000
      0.864972E+0000
      0.866951E+0000
      0.869122E+0000
      0.871565E+0000
      0.874385E+0000
      0.877715E+0000
      0.881719E+0000
      0.857585E+0000
      0.861458E+0000