<?xml version="1.0"?>
<VTKFile type="StructuredGrid" version="0.1" byte_order="LittleEndian">
<StructuredGrid WholeExtent="           0          10          70          80           0           1">
<Piece Extent="           0          10          70          80           0           1">
<Points>
<DataArray NumberOfComponents="3" type="Float64" format="ascii">
    0.000000E+00    0.226546E-01    0.000000E+00
    0.253324E-03    0.226546E-01    0.000000E+00
    0.509182E-03    0.226546E-01    0.000000E+00
    0.767598E-03    0.226546E-01    0.000000E+00
    0.102860E-02    0.226546E-01    0.000000E+00
    0.129221E-02    0.226546E-01    0.000000E+00
    0.155845E-02    0.226546E-01    0.000000E+00
    0.182736E-02    0.226546E-01    0.000000E+00
    0.209896E-02    0.226546E-01    0.000000E+00
    0.237327E-02    0.226546E-01    0.000000E+00
    0.265033E-02    0.226546E-01    0.000000E+00
    0.000000E+00    0.233450E-01    0.000000E+00
    0.253324E-03    0.233450E-01    0.000000E+00
    0.509182E-03    0.233450E-01    0.000000E+00
    0.767598E-03    0.233450E-01    0.000000E+00
    0.102860E-02    0.233450E-01    0.000000E+00
    0.129221E-02    0.233450E-01    0.000000E+00
    0.155845E-02    0.233450E-01    0.000000E+00
    0.182736E-02    0.233450E-01    0.000000E+00
    0.209896E-02    0.233450E-01    0.000000E+00
    0.237327E-02    0.233450E-01    0.000000E+00
    0.265033E-02    0.233450E-01    0.000000E+00
    0.000000E+00    0.240561E-01    0.000000E+00
    0.253324E-03    0.240561E-01    0.000000E+00
    0.509182E-03    0.240561E-01    0.000000E+00
    0.767598E-03    0.240561E-01    0.000000E+00
    0.102860E-02    0.240561E-01    0.000000E+00
    0.129221E-02    0.240561E-01    0.000000E+00
    0.155845E-02    0.240561E-01    0.000000E+00
    0.182736E-02    0.240561E-01    0.000000E+00
    0.209896E-02    0.240561E-01    0.000000E+00
    0.237327E-02    0.240561E-01    0.000000E+00
    0.265033E-02    0.240561E-01    0.000000E+00
    0.000000E+00    0.247885E-01    0.000000E+00
    0.253324E-03    0.247885E-01    0.000000E+00
    0.509182E-03    0.247885E-01    0.000000E+00
    0.767598E-03    0.247885E-01    0.000000E+00
    0.102860E-02    0.247885E-01    0.000000E+00
    0.129221E-02    0.247885E-01    0.000000E+00
    0.155845E-02    0.247885E-01    0.000000E+00
    0.182736E-02    0.247885E-01    0.000000E+00
    0.209896E-02    0.247885E-01    0.000000E+00
    0.237327E-02    0.247885E-01    0.000000E+00
    0.265033E-02    0.247885E-01    0.000000E+00
    0.000000E+00    0.255429E-01    0.000000E+00
    0.253324E-03    0.255429E-01    0.000000E+00
    0.509182E-03    0.255429E-01    0.000000E+00
    0.767598E-03    0.255429E-01    0.000000E+00
    0.102860E-02    0.255429E-01    0.000000E+00
    0.129221E-02    0.255429E-01    0.000000E+00
    0.155845E-02    0.255429E-01    0.000000E+00
    0.182736E-02    0.255429E-01    0.000000E+00
    0.209896E-02    0.255429E-01    0.000000E+00
    0.237327E-02    0.255429E-01    0.000000E+00
    0.265033E-02    0.255429E-01    0.000000E+00
    0.000000E+00    0.263200E-01    0.000000E+00
    0.253324E-03    0.263200E-01    0.000000E+00
    0.509182E-03    0.263200E-01    0.000000E+00
    0.767598E-03    0.263200E-01    0.000000E+00
    0.102860E-02    0.263200E-01    0.000000E+00
    0.129221E-02    0.263200E-01    0.000000E+00
    0.155845E-02    0.263200E-01    0.000000E+00
    0.182736E-02    0.263200E-01    0.000000E+00
    0.209896E-02    0.263200E-01    0.000000E+00
    0.237327E-02    0.263200E-01    0.000000E+00
    0.265033E-02    0.263200E-01    0.000000E+00
    0.000000E+00    0.271203E-01    0.000000E+00
    0.253324E-03    0.271203E-01    0.000000E+00
    0.509182E-03    0.271203E-01    0.000000E+00
    0.767598E-03    0.271203E-01    0.000000E+00
    0.102860E-02    0.271203E-01    0.000000E+00
    0.129221E-02    0.271203E-01    0.000000E+00
    0.155845E-02    0.271203E-01    0.000000E+00
    0.182736E-02    0.271203E-01    0.000000E+00
    0.209896E-02    0.271203E-01    0.000000E+00
    0.237327E-02    0.271203E-01    0.000000E+00
    0.265033E-02    0.271203E-01    0.000000E+00
    0.000000E+00    0.279447E-01    0.000000E+00
    0.253324E-03    0.279447E-01    0.000000E+00
    0.509182E-03    0.279447E-01    0.000000E+00
    0.767598E-03    0.279447E-01    0.000000E+00
    0.102860E-02    0.279447E-01    0.000000E+00
    0.129221E-02    0.279447E-01    0.000000E+00
    0.155845E-02    0.279447E-01    0.000000E+00
    0.182736E-02    0.279447E-01    0.000000E+00
    0.209896E-02    0.279447E-01    0.000000E+00
    0.237327E-02    0.279447E-01    0.000000E+00
    0.265033E-02    0.279447E-01    0.000000E+00
    0.000000E+00    0.287938E-01    0.000000E+00
    0.253324E-03    0.287938E-01    0.000000E+00
    0.509182E-03    0.287938E-01    0.000000E+00
    0.767598E-03    0.287938E-01    0.000000E+00
    0.102860E-02    0.287938E-01    0.000000E+00
    0.129221E-02    0.287938E-01    0.000000E+00
    0.155845E-02    0.287938E-01    0.000000E+00
    0.182736E-02    0.287938E-01    0.000000E+00
    0.209896E-02    0.287938E-01    0.000000E+00
    0.237327E-02    0.287938E-01    0.000000E+00
    0.265033E-02    0.287938E-01    0.000000E+00
    0.000000E+00    0.296683E-01    0.000000E+00
    0.253324E-03    0.296683E-01    0.000000E+00
    0.509182E-03    0.296683E-01    0.000000E+00
    0.767598E-03    0.296683E-01    0.000000E+00
    0.102860E-02    0.296683E-01    0.000000E+00
    0.129221E-02    0.296683E-01    0.000000E+00
    0.155845E-02    0.296683E-01    0.000000E+00
    0.182736E-02    0.296683E-01    0.000000E+00
    0.209896E-02    0.296683E-01    0.000000E+00
    0.237327E-02    0.296683E-01    0.000000E+00
    0.265033E-02    0.296683E-01    0.000000E+00
    0.000000E+00    0.305691E-01    0.000000E+00
    0.253324E-03    0.305691E-01    0.000000E+00
    0.509182E-03    0.305691E-01    0.000000E+00
    0.767598E-03    0.305691E-01    0.000000E+00
    0.102860E-02    0.305691E-01    0.000000E+00
    0.129221E-02    0.305691E-01    0.000000E+00
    0.155845E-02    0.305691E-01    0.000000E+00
    0.182736E-02    0.305691E-01    0.000000E+00
    0.209896E-02    0.305691E-01    0.000000E+00
    0.237327E-02    0.305691E-01    0.000000E+00
    0.265033E-02    0.305691E-01    0.000000E+00
    0.000000E+00    0.226546E-01    0.160000E-02
    0.253324E-03    0.226546E-01    0.160000E-02
    0.509182E-03    0.226546E-01    0.160000E-02
    0.767598E-03    0.226546E-01    0.160000E-02
    0.102860E-02    0.226546E-01    0.160000E-02
    0.129221E-02    0.226546E-01    0.160000E-02
    0.155845E-02    0.226546E-01    0.160000E-02
    0.182736E-02    0.226546E-01    0.160000E-02
    0.209896E-02    0.226546E-01    0.160000E-02
    0.237327E-02    0.226546E-01    0.160000E-02
    0.265033E-02    0.226546E-01    0.160000E-02
    0.000000E+00    0.233450E-01    0.160000E-02
    0.253324E-03    0.233450E-01    0.160000E-02
    0.509182E-03    0.233450E-01    0.160000E-02
    0.767598E-03    0.233450E-01    0.160000E-02
    0.102860E-02    0.233450E-01    0.160000E-02
    0.129221E-02    0.233450E-01    0.160000E-02
    0.155845E-02    0.233450E-01    0.160000E-02
    0.182736E-02    0.233450E-01    0.160000E-02
    0.209896E-02    0.233450E-01    0.160000E-02
    0.237327E-02    0.233450E-01    0.160000E-02
    0.265033E-02    0.233450E-01    0.160000E-02
    0.000000E+00    0.240561E-01    0.160000E-02
    0.253324E-03    0.240561E-01    0.160000E-02
    0.509182E-03    0.240561E-01    0.160000E-02
    0.767598E-03    0.240561E-01    0.160000E-02
    0.102860E-02    0.240561E-01    0.160000E-02
    0.129221E-02    0.240561E-01    0.160000E-02
    0.155845E-02    0.240561E-01    0.160000E-02
    0.182736E-02    0.240561E-01    0.160000E-02
    0.209896E-02    0.240561E-01    0.160000E-02
    0.237327E-02    0.240561E-01    0.160000E-02
    0.265033E-02    0.240561E-01    0.160000E-02
    0.000000E+00    0.247885E-01    0.160000E-02
    0.253324E-03    0.247885E-01    0.160000E-02
    0.509182E-03    0.247885E-01    0.160000E-02
    0.767598E-03    0.247885E-01    0.160000E-02
    0.102860E-02    0.247885E-01    0.160000E-02
    0.129221E-02    0.247885E-01    0.160000E-02
    0.155845E-02    0.247885E-01    0.160000E-02
    0.182736E-02    0.247885E-01    0.160000E-02
    0.209896E-02    0.247885E-01    0.160000E-02
    0.237327E-02    0.247885E-01    0.160000E-02
    0.265033E-02    0.247885E-01    0.160000E-02
    0.000000E+00    0.255429E-01    0.160000E-02
    0.253324E-03    0.255429E-01    0.160000E-02
    0.509182E-03    0.255429E-01    0.160000E-02
    0.767598E-03    0.255429E-01    0.160000E-02
    0.102860E-02    0.255429E-01    0.160000E-02
    0.129221E-02    0.255429E-01    0.160000E-02
    0.155845E-02    0.255429E-01    0.160000E-02
    0.182736E-02    0.255429E-01    0.160000E-02
    0.209896E-02    0.255429E-01    0.160000E-02
    0.237327E-02    0.255429E-01    0.160000E-02
    0.265033E-02    0.255429E-01    0.160000E-02
    0.000000E+00    0.263200E-01    0.160000E-02
    0.253324E-03    0.263200E-01    0.160000E-02
    0.509182E-03    0.263200E-01    0.160000E-02
    0.767598E-03    0.263200E-01    0.160000E-02
    0.102860E-02    0.263200E-01    0.160000E-02
    0.129221E-02    0.263200E-01    0.160000E-02
    0.155845E-02    0.263200E-01    0.160000E-02
    0.182736E-02    0.263200E-01    0.160000E-02
    0.209896E-02    0.263200E-01    0.160000E-02
    0.237327E-02    0.263200E-01    0.160000E-02
    0.265033E-02    0.263200E-01    0.160000E-02
    0.000000E+00    0.271203E-01    0.160000E-02
    0.253324E-03    0.271203E-01    0.160000E-02
    0.509182E-03    0.271203E-01    0.160000E-02
    0.767598E-03    0.271203E-01    0.160000E-02
    0.102860E-02    0.271203E-01    0.160000E-02
    0.129221E-02    0.271203E-01    0.160000E-02
    0.155845E-02    0.271203E-01    0.160000E-02
    0.182736E-02    0.271203E-01    0.160000E-02
    0.209896E-02    0.271203E-01    0.160000E-02
    0.237327E-02    0.271203E-01    0.160000E-02
    0.265033E-02    0.271203E-01    0.160000E-02
    0.000000E+00    0.279447E-01    0.160000E-02
    0.253324E-03    0.279447E-01    0.160000E-02
    0.509182E-03    0.279447E-01    0.160000E-02
    0.767598E-03    0.279447E-01    0.160000E-02
    0.102860E-02    0.279447E-01    0.160000E-02
    0.129221E-02    0.279447E-01    0.160000E-02
    0.155845E-02    0.279447E-01    0.160000E-02
    0.182736E-02    0.279447E-01    0.160000E-02
    0.209896E-02    0.279447E-01    0.160000E-02
    0.237327E-02    0.279447E-01    0.160000E-02
    0.265033E-02    0.279447E-01    0.160000E-02
    0.000000E+00    0.287938E-01    0.160000E-02
    0.253324E-03    0.287938E-01    0.160000E-02
    0.509182E-03    0.287938E-01    0.160000E-02
    0.767598E-03    0.287938E-01    0.160000E-02
    0.102860E-02    0.287938E-01    0.160000E-02
    0.129221E-02    0.287938E-01    0.160000E-02
    0.155845E-02    0.287938E-01    0.160000E-02
    0.182736E-02    0.287938E-01    0.160000E-02
    0.209896E-02    0.287938E-01    0.160000E-02
    0.237327E-02    0.287938E-01    0.160000E-02
    0.265033E-02    0.287938E-01    0.160000E-02
    0.000000E+00    0.296683E-01    0.160000E-02
    0.253324E-03    0.296683E-01    0.160000E-02
    0.509182E-03    0.296683E-01    0.160000E-02
    0.767598E-03    0.296683E-01    0.160000E-02
    0.102860E-02    0.296683E-01    0.160000E-02
    0.129221E-02    0.296683E-01    0.160000E-02
    0.155845E-02    0.296683E-01    0.160000E-02
    0.182736E-02    0.296683E-01    0.160000E-02
    0.209896E-02    0.296683E-01    0.160000E-02
    0.237327E-02    0.296683E-01    0.160000E-02
    0.265033E-02    0.296683E-01    0.160000E-02
    0.000000E+00    0.305691E-01    0.160000E-02
    0.253324E-03    0.305691E-01    0.160000E-02
    0.509182E-03    0.305691E-01    0.160000E-02
    0.767598E-03    0.305691E-01    0.160000E-02
    0.102860E-02    0.305691E-01    0.160000E-02
    0.129221E-02    0.305691E-01    0.160000E-02
    0.155845E-02    0.305691E-01    0.160000E-02
    0.182736E-02    0.305691E-01    0.160000E-02
    0.209896E-02    0.305691E-01    0.160000E-02
    0.237327E-02    0.305691E-01    0.160000E-02
    0.265033E-02    0.305691E-01    0.160000E-02
</DataArray>
</Points>
<PointData>
<DataArray Name="Velocity" type="Float64" format="ascii" NumberOfComponents="3">
    0.890000E-01   -0.299630E-05    0.000000E+00
    0.889992E-01   -0.227936E-04    0.000000E+00
    0.889973E-01   -0.438199E-04    0.000000E+00
    0.889945E-01   -0.636297E-04    0.000000E+00
    0.889911E-01   -0.824984E-04    0.000000E+00
    0.889870E-01   -0.100547E-03    0.000000E+00
    0.889824E-01   -0.117818E-03    0.000000E+00
    0.889772E-01   -0.134317E-03    0.000000E+00
    0.889715E-01   -0.150033E-03    0.000000E+00
    0.889652E-01   -0.164952E-03    0.000000E+00
    0.889585E-01   -0.179063E-03    0.000000E+00
    0.890000E-01   -0.207613E-05    0.000000E+00
    0.889994E-01   -0.170260E-04    0.000000E+00
    0.889978E-01   -0.346217E-04    0.000000E+00
    0.889955E-01   -0.521363E-04    0.000000E+00
    0.889925E-01   -0.692436E-04    0.000000E+00
    0.889890E-01   -0.857708E-04    0.000000E+00
    0.889849E-01   -0.101621E-03    0.000000E+00
    0.889803E-01   -0.116735E-03    0.000000E+00
    0.889752E-01   -0.131070E-03    0.000000E+00
    0.889697E-01   -0.144594E-03    0.000000E+00
    0.889636E-01   -0.157279E-03    0.000000E+00
    0.890000E-01   -0.199874E-05    0.000000E+00
    0.889999E-01   -0.157619E-04    0.000000E+00
    0.889994E-01   -0.312182E-04    0.000000E+00
    0.889983E-01   -0.463423E-04    0.000000E+00
    0.889966E-01   -0.610815E-04    0.000000E+00
    0.889943E-01   -0.753698E-04    0.000000E+00
    0.889914E-01   -0.891412E-04    0.000000E+00
    0.889879E-01   -0.102334E-03    0.000000E+00
    0.889839E-01   -0.114892E-03    0.000000E+00
    0.889794E-01   -0.126765E-03    0.000000E+00
    0.889744E-01   -0.137905E-03    0.000000E+00
    0.890000E-01   -0.182025E-05    0.000000E+00
    0.889998E-01   -0.142926E-04    0.000000E+00
    0.889993E-01   -0.281707E-04    0.000000E+00
    0.889983E-01   -0.416150E-04    0.000000E+00
    0.889970E-01   -0.546173E-04    0.000000E+00
    0.889951E-01   -0.671592E-04    0.000000E+00
    0.889929E-01   -0.792142E-04    0.000000E+00
    0.889902E-01   -0.907502E-04    0.000000E+00
    0.889870E-01   -0.101732E-03    0.000000E+00
    0.889834E-01   -0.112122E-03    0.000000E+00
    0.889795E-01   -0.121886E-03    0.000000E+00
    0.890000E-01   -0.163050E-05    0.000000E+00
    0.889998E-01   -0.128000E-04    0.000000E+00
    0.889993E-01   -0.252135E-04    0.000000E+00
    0.889984E-01   -0.372098E-04    0.000000E+00
    0.889972E-01   -0.487796E-04    0.000000E+00
    0.889956E-01   -0.599116E-04    0.000000E+00
    0.889937E-01   -0.705911E-04    0.000000E+00
    0.889914E-01   -0.807995E-04    0.000000E+00
    0.889888E-01   -0.905160E-04    0.000000E+00
    0.889858E-01   -0.997182E-04    0.000000E+00
    0.889825E-01   -0.108386E-03    0.000000E+00
    0.890000E-01   -0.145379E-05    0.000000E+00
    0.889998E-01   -0.114143E-04    0.000000E+00
    0.889994E-01   -0.224841E-04    0.000000E+00
    0.889986E-01   -0.331786E-04    0.000000E+00
    0.889975E-01   -0.434886E-04    0.000000E+00
    0.889961E-01   -0.534053E-04    0.000000E+00
    0.889944E-01   -0.629187E-04    0.000000E+00
    0.889925E-01   -0.720172E-04    0.000000E+00
    0.889902E-01   -0.806884E-04    0.000000E+00
    0.889877E-01   -0.889199E-04    0.000000E+00
    0.889850E-01   -0.967017E-04    0.000000E+00
    0.890000E-01   -0.129425E-05    0.000000E+00
    0.889999E-01   -0.101636E-04    0.000000E+00
    0.889994E-01   -0.200239E-04    0.000000E+00
    0.889988E-01   -0.295525E-04    0.000000E+00
    0.889978E-01   -0.387422E-04    0.000000E+00
    0.889966E-01   -0.475870E-04    0.000000E+00
    0.889951E-01   -0.560806E-04    0.000000E+00
    0.889934E-01   -0.642166E-04    0.000000E+00
    0.889915E-01   -0.719883E-04    0.000000E+00
    0.889894E-01   -0.793906E-04    0.000000E+00
    0.889870E-01   -0.864210E-04    0.000000E+00
    0.890000E-01   -0.115181E-05    0.000000E+00
    0.889999E-01   -0.904716E-05    0.000000E+00
    0.889995E-01   -0.178278E-04    0.000000E+00
    0.889989E-01   -0.263164E-04    0.000000E+00
    0.889981E-01   -0.345076E-04    0.000000E+00
    0.889971E-01   -0.423978E-04    0.000000E+00
    0.889958E-01   -0.499842E-04    0.000000E+00
    0.889943E-01   -0.572644E-04    0.000000E+00
    0.889927E-01   -0.642371E-04    0.000000E+00
    0.889908E-01   -0.709026E-04    0.000000E+00
    0.889887E-01   -0.772653E-04    0.000000E+00
    0.890000E-01   -0.102616E-05    0.000000E+00
    0.889999E-01   -0.806165E-05    0.000000E+00
    0.889996E-01   -0.158866E-04    0.000000E+00
    0.889991E-01   -0.234496E-04    0.000000E+00
    0.889984E-01   -0.307462E-04    0.000000E+00
    0.889975E-01   -0.377750E-04    0.000000E+00
    0.889964E-01   -0.445365E-04    0.000000E+00
    0.889951E-01   -0.510329E-04    0.000000E+00
    0.889936E-01   -0.572678E-04    0.000000E+00
    0.889920E-01   -0.632475E-04    0.000000E+00
    0.889901E-01   -0.689821E-04    0.000000E+00
    0.890000E-01   -0.921064E-06    0.000000E+00
    0.889999E-01   -0.722804E-05    0.000000E+00
    0.889997E-01   -0.142224E-04    0.000000E+00
    0.889993E-01   -0.209560E-04    0.000000E+00
    0.889987E-01   -0.274290E-04    0.000000E+00
    0.889979E-01   -0.336471E-04    0.000000E+00
    0.889969E-01   -0.396186E-04    0.000000E+00
    0.889957E-01   -0.453525E-04    0.000000E+00
    0.889943E-01   -0.508589E-04    0.000000E+00
    0.889927E-01   -0.561498E-04    0.000000E+00
    0.889910E-01   -0.612409E-04    0.000000E+00
    0.890000E-01   -0.861947E-06    0.000000E+00
    0.889999E-01   -0.663299E-05    0.000000E+00
    0.889995E-01   -0.128512E-04    0.000000E+00
    0.889989E-01   -0.187353E-04    0.000000E+00
    0.889982E-01   -0.243437E-04    0.000000E+00
    0.889972E-01   -0.297121E-04    0.000000E+00
    0.889961E-01   -0.348626E-04    0.000000E+00
    0.889948E-01   -0.398092E-04    0.000000E+00
    0.889934E-01   -0.445620E-04    0.000000E+00
    0.889918E-01   -0.491302E-04    0.000000E+00
    0.889900E-01   -0.535255E-04    0.000000E+00
    0.890000E-01    0.000000E+00    0.000000E+00
    0.889993E-01   -0.227936E-04    0.558283E-20
    0.889977E-01   -0.438199E-04    0.107328E-19
    0.889951E-01   -0.636297E-04    0.155848E-19
    0.889918E-01   -0.824984E-04    0.202063E-19
    0.889879E-01   -0.100547E-03    0.246268E-19
    0.889833E-01   -0.117818E-03    0.288570E-19
    0.889781E-01   -0.134317E-03    0.328981E-19
    0.889724E-01   -0.150033E-03    0.367474E-19
    0.889661E-01   -0.164952E-03    0.404015E-19
    0.889592E-01   -0.179063E-03    0.438578E-19
    0.890000E-01    0.000000E+00    0.000000E+00
    0.889994E-01   -0.170260E-04    0.417018E-20
    0.889978E-01   -0.346217E-04    0.847987E-20
    0.889955E-01   -0.521363E-04    0.127697E-19
    0.889925E-01   -0.692436E-04    0.169598E-19
    0.889890E-01   -0.857708E-04    0.210078E-19
    0.889849E-01   -0.101621E-03    0.248900E-19
    0.889803E-01   -0.116735E-03    0.285918E-19
    0.889752E-01   -0.131070E-03    0.321030E-19
    0.889697E-01   -0.144594E-03    0.354154E-19
    0.889636E-01   -0.157279E-03    0.385223E-19
    0.890000E-01    0.000000E+00    0.000000E+00
    0.889999E-01   -0.157619E-04    0.386054E-20
    0.889994E-01   -0.312182E-04    0.764625E-20
    0.889983E-01   -0.463423E-04    0.113506E-19
    0.889966E-01   -0.610815E-04    0.149607E-19
    0.889943E-01   -0.753698E-04    0.184603E-19
    0.889914E-01   -0.891412E-04    0.218333E-19
    0.889879E-01   -0.102334E-03    0.250647E-19
    0.889839E-01   -0.114892E-03    0.281405E-19
    0.889794E-01   -0.126765E-03    0.310484E-19
    0.889744E-01   -0.137905E-03    0.337770E-19
    0.890000E-01    0.000000E+00    0.000000E+00
    0.889998E-01   -0.142926E-04    0.350067E-20
    0.889993E-01   -0.281707E-04    0.689983E-20
    0.889983E-01   -0.416150E-04    0.101927E-19
    0.889970E-01   -0.546173E-04    0.133774E-19
    0.889951E-01   -0.671592E-04    0.164493E-19
    0.889929E-01   -0.792142E-04    0.194019E-19
    0.889902E-01   -0.907502E-04    0.222274E-19
    0.889870E-01   -0.101732E-03    0.249171E-19
    0.889834E-01   -0.112122E-03    0.274620E-19
    0.889795E-01   -0.121886E-03    0.298536E-19
    0.890000E-01    0.000000E+00    0.000000E+00
    0.889998E-01   -0.128000E-04    0.313510E-20
    0.889993E-01   -0.252135E-04    0.617553E-20
    0.889984E-01   -0.372098E-04    0.911376E-20
    0.889972E-01   -0.487796E-04    0.119475E-19
    0.889956E-01   -0.599116E-04    0.146741E-19
    0.889937E-01   -0.705911E-04    0.172898E-19
    0.889914E-01   -0.807995E-04    0.197902E-19
    0.889888E-01   -0.905160E-04    0.221700E-19
    0.889858E-01   -0.997182E-04    0.244239E-19
    0.889825E-01   -0.108386E-03    0.265469E-19
    0.890000E-01    0.000000E+00    0.000000E+00
    0.889998E-01   -0.114143E-04    0.279569E-20
    0.889994E-01   -0.224841E-04    0.550703E-20
    0.889986E-01   -0.331786E-04    0.812642E-20
    0.889975E-01   -0.434886E-04    0.106516E-19
    0.889961E-01   -0.534053E-04    0.130805E-19
    0.889944E-01   -0.629187E-04    0.154106E-19
    0.889925E-01   -0.720172E-04    0.176391E-19
    0.889902E-01   -0.806884E-04    0.197630E-19
    0.889877E-01   -0.889199E-04    0.217791E-19
    0.889850E-01   -0.967017E-04    0.236851E-19
    0.890000E-01    0.000000E+00    0.000000E+00
    0.889999E-01   -0.101636E-04    0.248938E-20
    0.889994E-01   -0.200239E-04    0.490444E-20
    0.889988E-01   -0.295525E-04    0.723827E-20
    0.889978E-01   -0.387422E-04    0.948910E-20
    0.889966E-01   -0.475870E-04    0.116555E-19
    0.889951E-01   -0.560806E-04    0.137358E-19
    0.889934E-01   -0.642166E-04    0.157285E-19
    0.889915E-01   -0.719883E-04    0.176321E-19
    0.889894E-01   -0.793906E-04    0.194451E-19
    0.889870E-01   -0.864210E-04    0.211670E-19
    0.890000E-01    0.000000E+00    0.000000E+00
    0.889999E-01   -0.904716E-05    0.221592E-20
    0.889995E-01   -0.178278E-04    0.436655E-20
    0.889989E-01   -0.263164E-04    0.644566E-20
    0.889981E-01   -0.345076E-04    0.845192E-20
    0.889971E-01   -0.423978E-04    0.103845E-19
    0.889958E-01   -0.499842E-04    0.122426E-19
    0.889943E-01   -0.572644E-04    0.140257E-19
    0.889927E-01   -0.642371E-04    0.157336E-19
    0.889908E-01   -0.709026E-04    0.173661E-19
    0.889887E-01   -0.772653E-04    0.189245E-19
    0.890000E-01    0.000000E+00    0.000000E+00
    0.889999E-01   -0.806165E-05    0.197453E-20
    0.889996E-01   -0.158866E-04    0.389109E-20
    0.889991E-01   -0.234496E-04    0.574350E-20
    0.889984E-01   -0.307462E-04    0.753065E-20
    0.889975E-01   -0.377750E-04    0.925221E-20
    0.889964E-01   -0.445365E-04    0.109083E-19
    0.889951E-01   -0.510329E-04    0.124994E-19
    0.889936E-01   -0.572678E-04    0.140266E-19
    0.889920E-01   -0.632475E-04    0.154912E-19
    0.889901E-01   -0.689821E-04    0.168957E-19
    0.890000E-01    0.000000E+00    0.000000E+00
    0.889999E-01   -0.722804E-05    0.177036E-20
    0.889997E-01   -0.142224E-04    0.348348E-20
    0.889993E-01   -0.209560E-04    0.513274E-20
    0.889987E-01   -0.274290E-04    0.671816E-20
    0.889979E-01   -0.336471E-04    0.824117E-20
    0.889969E-01   -0.396186E-04    0.970375E-20
    0.889957E-01   -0.453525E-04    0.111081E-19
    0.889943E-01   -0.508589E-04    0.124568E-19
    0.889927E-01   -0.561498E-04    0.137527E-19
    0.889910E-01   -0.612409E-04    0.149997E-19
    0.890000E-01    0.000000E+00    0.000000E+00
    0.889999E-01   -0.663299E-05    0.162461E-20
    0.889995E-01   -0.128512E-04    0.314764E-20
    0.889989E-01   -0.187353E-04    0.458884E-20
    0.889982E-01   -0.243437E-04    0.596248E-20
    0.889972E-01   -0.297121E-04    0.727736E-20
    0.889961E-01   -0.348626E-04    0.853887E-20
    0.889948E-01   -0.398092E-04    0.975045E-20
    0.889934E-01   -0.445620E-04    0.109146E-19
    0.889918E-01   -0.491302E-04    0.120334E-19
    0.889900E-01   -0.535255E-04    0.131100E-19
</DataArray>
</PointData>
<CellData>
<DataArray Name="DP" type="Float64" format="ascii" NumberOfComponents="1">
      0.000000E+0000
      0.000000E+0000
      0.000000E+0000
      0.000000E+0000
      0.000000E+0000
      0.000000E+0000
      0.000000E+0000
      0.000000E+0000
      0.000000E+0000
      0.000000E+0000
      0.000000E+0000
      0.000000E+0000
      0.000000E+0000
      0.000000E+0000
      0.000000E+0000
      0.000000E+0000
      0.000000E+0000
      0.000000E+0000
      0.000000E+0000
      0.000000E+0000
      0.000000E+0000
      0.000000E+0000
      0.000000E+0000
      0.000000E+0000
      0.000000E+0000
      0.000000E+0000
      0.000000E+0000
      0.000000E+0000
      0.000000E+0000
      0.000000E+0000
      0.000000E+0000
      0.000000E+0000
      0.000000E+0000
      0.000000E+0000
      0.000000E+0000
      0.000000E+0000
      0.000000E+0000
      0.000000E+0000
      0.000000E+0000
      0.000000E+0000
      0.000000E+0000
      0.000000E+0000
      0.000000E+0000
      0.000000E+0000
      0.000000E+0000
      0.000000E+0000
      0.000000E+0000
      0.000000E+0000
      0.000000E+0000
      0.000000E+0000
      0.000000E+0000
      0.000000E+0000
      0.000000E+0000
      0.000000E+0000
      0.000000E+0000
      0.000000E+0000
      0.000000E+0000
      0.000000E+0000
      0.000000E+0000
      0.000000E+0000
      0.000000E+0000
      0.000000E+0000
      0.000000E+0000
      0.000000E+0000
      0.000000E+0000
      0.000000E+0000
      0.000000E+0000
      0.000000E+0000
      0.000000E+0000
      0.000000E+0000
      0.000000E+0000
      0.000000E+0000
      0.000000E+0000
      0.000000E+0000
      0.000000E+0000
      0.000000E+0000
      0.000000E+0000
      0.000000E+0000
      0.000000E+0000
      0.000000E+0000
      0.000000E+0000
      0.000000E+0000
      0.000000E+0000
      0.000000E+0000
      0.000000E+0000
      0.000000E+0000
      0.000000E+0000
      0.000000E+0000
      0.000000E+0000
      0.000000E+0000
      0.000000E+0000
      0.000000E+0000
      0.000000E+0000
      0.000000E+0000
      0.000000E+0000
      0.000000E+0000
      0.000000E+0000
      0.000000E+0000
      0.000000E+0000
      0.000000E+0000
</DataArray>
<DataArray Name="P" type="Float64" format="ascii" NumberOfComponents="1">
      0.631597E+0000
      0.628669E+0000
      0.625713E+0000
      0.622727E+0000
      0.619711E+0000
      0.616666E+0000
      0.613590E+0000
      0.610483E+0000
      0.607345E+0000
      0.604176E+0000
      0.631601E+0000
      0.628674E+0000
      0.625718E+0000
      0.622732E+0000
      0.619716E+0000
      0.616671E+0000
      0.613595E+0000
      0.610488E+0000
      0.607350E+0000
      0.604181E+0000
      0.631606E+0000
      0.628679E+0000
      0.625722E+0000
      0.622737E+0000
      0.619721E+0000
      0.616675E+0000
      0.613599E+0000
      0.610492E+0000
      0.607355E+0000
      0.604186E+0000
      0.631610E+0000
      0.628683E+0000
      0.625726E+0000
      0.622741E+0000
      0.619725E+0000
      0.616679E+0000
      0.613603E+0000
      0.610496E+0000
      0.607359E+0000
      0.604189E+0000
      0.631614E+0000
      0.628686E+0000
      0.625730E+0000
      0.622744E+0000
      0.619729E+0000
      0.616683E+0000
      0.613607E+0000
      0.610500E+0000
      0.607362E+0000
      0.604193E+0000
      0.631617E+0000
      0.628690E+0000
      0.625734E+0000
      0.622748E+0000
      0.619732E+0000
      0.616686E+0000
      0.613610E+0000
      0.610503E+0000
      0.607365E+0000
      0.604196E+0000
      0.631620E+0000
      0.628693E+0000
      0.625737E+0000
      0.622751E+0000
      0.619735E+0000
      0.616690E+0000
      0.613613E+0000
      0.610506E+0000
      0.607368E+0000
      0.604199E+0000
      0.631623E+0000
      0.628696E+0000
      0.625740E+0000
      0.622754E+0000
      0.619738E+0000
      0.616692E+0000
      0.613616E+0000
      0.610509E+0000
      0.607371E+0000
      0.604202E+0000
      0.631625E+0000
      0.628698E+0000
      0.625742E+0000
      0.622756E+0000
      0.619741E+0000
      0.616695E+0000
      0.613619E+0000
      0.610512E+0000
      0.607374E+0000
      0.604204E+0000
      0.631628E+0000
      0.628701E+0000
      0.625744E+0000
      0.622759E+0000
      0.619743E+0000
      0.616697E+0000
      0.613621E+0000
      0.610514E+0000
      0.607376E+0000
      0.604206E+0000
</DataArray>
<DataArray Name="RHO" type="Float64" format="ascii" NumberOfComponents="1">
      0.117197E+0001
      0.117197E+0001
      0.117197E+0001
      0.117197E+0001
      0.117197E+0001
      0.117197E+0001
      0.117197E+0001
      0.117197E+0001
      0.117197E+0001
      0.117197E+0001
      0.117197E+0001
      0.117197E+0001
      0.117197E+0001
      0.117197E+0001
      0.117197E+0001
      0.117197E+0001
      0.117197E+0001
      0.117197E+0001
      0.117197E+0001
      0.117197E+0001
      0.117197E+0001
      0.117197E+0001
      0.117197E+0001
      0.117197E+0001
      0.117197E+0001
      0.117197E+0001
      0.117197E+0001
      0.117197E+0001
      0.117197E+0001
      0.117197E+0001
      0.117197E+0001
      0.117197E+0001
      0.117197E+0001
      0.117197E+0001
      0.117197E+0001
      0.117197E+0001
      0.117197E+0001
      0.117197E+0001
      0.117197E+0001
      0.117197E+0001
      0.117197E+0001
      0.117197E+0001
      0.117197E+0001
      0.117197E+0001
      0.117197E+0001
      0.117197E+0001
      0.117197E+0001
      0.117197E+0001
      0.117197E+0001
      0.117197E+0001
      0.117197E+0001
      0.117197E+0001
      0.117197E+0001
      0.117197E+0001
      0.117197E+0001
      0.117197E+0001
      0.117197E+0001
      0.117197E+0001
      0.117197E+0001
      0.117197E+0001
      0.117197E+0001
      0.117197E+0001