<?xml version="1.0"?>
<VTKFile type="StructuredGrid" version="0.1" byte_order="LittleEndian">
<StructuredGrid WholeExtent="         140         150          40          50           0           1">
<Piece Extent="         140         150          40          50           0           1">
<Points>
<DataArray NumberOfComponents="3" type="Float64" format="ascii">
    0.766837E-01    0.912275E-02    0.000000E+00
    0.777039E-01    0.912275E-02    0.000000E+00
    0.787343E-01    0.912275E-02    0.000000E+00
    0.797749E-01    0.912275E-02    0.000000E+00
    0.808260E-01    0.912275E-02    0.000000E+00
    0.818876E-01    0.912275E-02    0.000000E+00
    0.829598E-01    0.912275E-02    0.000000E+00
    0.840427E-01    0.912275E-02    0.000000E+00
    0.851365E-01    0.912275E-02    0.000000E+00
    0.862412E-01    0.912275E-02    0.000000E+00
    0.873569E-01    0.912275E-02    0.000000E+00
    0.766837E-01    0.940718E-02    0.000000E+00
    0.777039E-01    0.940718E-02    0.000000E+00
    0.787343E-01    0.940718E-02    0.000000E+00
    0.797749E-01    0.940718E-02    0.000000E+00
    0.808260E-01    0.940718E-02    0.000000E+00
    0.818876E-01    0.940718E-02    0.000000E+00
    0.829598E-01    0.940718E-02    0.000000E+00
    0.840427E-01    0.940718E-02    0.000000E+00
    0.851365E-01    0.940718E-02    0.000000E+00
    0.862412E-01    0.940718E-02    0.000000E+00
    0.873569E-01    0.940718E-02    0.000000E+00
    0.766837E-01    0.970015E-02    0.000000E+00
    0.777039E-01    0.970015E-02    0.000000E+00
    0.787343E-01    0.970015E-02    0.000000E+00
    0.797749E-01    0.970015E-02    0.000000E+00
    0.808260E-01    0.970015E-02    0.000000E+00
    0.818876E-01    0.970015E-02    0.000000E+00
    0.829598E-01    0.970015E-02    0.000000E+00
    0.840427E-01    0.970015E-02    0.000000E+00
    0.851365E-01    0.970015E-02    0.000000E+00
    0.862412E-01    0.970015E-02    0.000000E+00
    0.873569E-01    0.970015E-02    0.000000E+00
    0.766837E-01    0.100019E-01    0.000000E+00
    0.777039E-01    0.100019E-01    0.000000E+00
    0.787343E-01    0.100019E-01    0.000000E+00
    0.797749E-01    0.100019E-01    0.000000E+00
    0.808260E-01    0.100019E-01    0.000000E+00
    0.818876E-01    0.100019E-01    0.000000E+00
    0.829598E-01    0.100019E-01    0.000000E+00
    0.840427E-01    0.100019E-01    0.000000E+00
    0.851365E-01    0.100019E-01    0.000000E+00
    0.862412E-01    0.100019E-01    0.000000E+00
    0.873569E-01    0.100019E-01    0.000000E+00
    0.766837E-01    0.103127E-01    0.000000E+00
    0.777039E-01    0.103127E-01    0.000000E+00
    0.787343E-01    0.103127E-01    0.000000E+00
    0.797749E-01    0.103127E-01    0.000000E+00
    0.808260E-01    0.103127E-01    0.000000E+00
    0.818876E-01    0.103127E-01    0.000000E+00
    0.829598E-01    0.103127E-01    0.000000E+00
    0.840427E-01    0.103127E-01    0.000000E+00
    0.851365E-01    0.103127E-01    0.000000E+00
    0.862412E-01    0.103127E-01    0.000000E+00
    0.873569E-01    0.103127E-01    0.000000E+00
    0.766837E-01    0.106328E-01    0.000000E+00
    0.777039E-01    0.106328E-01    0.000000E+00
    0.787343E-01    0.106328E-01    0.000000E+00
    0.797749E-01    0.106328E-01    0.000000E+00
    0.808260E-01    0.106328E-01    0.000000E+00
    0.818876E-01    0.106328E-01    0.000000E+00
    0.829598E-01    0.106328E-01    0.000000E+00
    0.840427E-01    0.106328E-01    0.000000E+00
    0.851365E-01    0.106328E-01    0.000000E+00
    0.862412E-01    0.106328E-01    0.000000E+00
    0.873569E-01    0.106328E-01    0.000000E+00
    0.766837E-01    0.109626E-01    0.000000E+00
    0.777039E-01    0.109626E-01    0.000000E+00
    0.787343E-01    0.109626E-01    0.000000E+00
    0.797749E-01    0.109626E-01    0.000000E+00
    0.808260E-01    0.109626E-01    0.000000E+00
    0.818876E-01    0.109626E-01    0.000000E+00
    0.829598E-01    0.109626E-01    0.000000E+00
    0.840427E-01    0.109626E-01    0.000000E+00
    0.851365E-01    0.109626E-01    0.000000E+00
    0.862412E-01    0.109626E-01    0.000000E+00
    0.873569E-01    0.109626E-01    0.000000E+00
    0.766837E-01    0.113022E-01    0.000000E+00
    0.777039E-01    0.113022E-01    0.000000E+00
    0.787343E-01    0.113022E-01    0.000000E+00
    0.797749E-01    0.113022E-01    0.000000E+00
    0.808260E-01    0.113022E-01    0.000000E+00
    0.818876E-01    0.113022E-01    0.000000E+00
    0.829598E-01    0.113022E-01    0.000000E+00
    0.840427E-01    0.113022E-01    0.000000E+00
    0.851365E-01    0.113022E-01    0.000000E+00
    0.862412E-01    0.113022E-01    0.000000E+00
    0.873569E-01    0.113022E-01    0.000000E+00
    0.766837E-01    0.116520E-01    0.000000E+00
    0.777039E-01    0.116520E-01    0.000000E+00
    0.787343E-01    0.116520E-01    0.000000E+00
    0.797749E-01    0.116520E-01    0.000000E+00
    0.808260E-01    0.116520E-01    0.000000E+00
    0.818876E-01    0.116520E-01    0.000000E+00
    0.829598E-01    0.116520E-01    0.000000E+00
    0.840427E-01    0.116520E-01    0.000000E+00
    0.851365E-01    0.116520E-01    0.000000E+00
    0.862412E-01    0.116520E-01    0.000000E+00
    0.873569E-01    0.116520E-01    0.000000E+00
    0.766837E-01    0.120123E-01    0.000000E+00
    0.777039E-01    0.120123E-01    0.000000E+00
    0.787343E-01    0.120123E-01    0.000000E+00
    0.797749E-01    0.120123E-01    0.000000E+00
    0.808260E-01    0.120123E-01    0.000000E+00
    0.818876E-01    0.120123E-01    0.000000E+00
    0.829598E-01    0.120123E-01    0.000000E+00
    0.840427E-01    0.120123E-01    0.000000E+00
    0.851365E-01    0.120123E-01    0.000000E+00
    0.862412E-01    0.120123E-01    0.000000E+00
    0.873569E-01    0.120123E-01    0.000000E+00
    0.766837E-01    0.123834E-01    0.000000E+00
    0.777039E-01    0.123834E-01    0.000000E+00
    0.787343E-01    0.123834E-01    0.000000E+00
    0.797749E-01    0.123834E-01    0.000000E+00
    0.808260E-01    0.123834E-01    0.000000E+00
    0.818876E-01    0.123834E-01    0.000000E+00
    0.829598E-01    0.123834E-01    0.000000E+00
    0.840427E-01    0.123834E-01    0.000000E+00
    0.851365E-01    0.123834E-01    0.000000E+00
    0.862412E-01    0.123834E-01    0.000000E+00
    0.873569E-01    0.123834E-01    0.000000E+00
    0.766837E-01    0.912275E-02    0.160000E-02
    0.777039E-01    0.912275E-02    0.160000E-02
    0.787343E-01    0.912275E-02    0.160000E-02
    0.797749E-01    0.912275E-02    0.160000E-02
    0.808260E-01    0.912275E-02    0.160000E-02
    0.818876E-01    0.912275E-02    0.160000E-02
    0.829598E-01    0.912275E-02    0.160000E-02
    0.840427E-01    0.912275E-02    0.160000E-02
    0.851365E-01    0.912275E-02    0.160000E-02
    0.862412E-01    0.912275E-02    0.160000E-02
    0.873569E-01    0.912275E-02    0.160000E-02
    0.766837E-01    0.940718E-02    0.160000E-02
    0.777039E-01    0.940718E-02    0.160000E-02
    0.787343E-01    0.940718E-02    0.160000E-02
    0.797749E-01    0.940718E-02    0.160000E-02
    0.808260E-01    0.940718E-02    0.160000E-02
    0.818876E-01    0.940718E-02    0.160000E-02
    0.829598E-01    0.940718E-02    0.160000E-02
    0.840427E-01    0.940718E-02    0.160000E-02
    0.851365E-01    0.940718E-02    0.160000E-02
    0.862412E-01    0.940718E-02    0.160000E-02
    0.873569E-01    0.940718E-02    0.160000E-02
    0.766837E-01    0.970015E-02    0.160000E-02
    0.777039E-01    0.970015E-02    0.160000E-02
    0.787343E-01    0.970015E-02    0.160000E-02
    0.797749E-01    0.970015E-02    0.160000E-02
    0.808260E-01    0.970015E-02    0.160000E-02
    0.818876E-01    0.970015E-02    0.160000E-02
    0.829598E-01    0.970015E-02    0.160000E-02
    0.840427E-01    0.970015E-02    0.160000E-02
    0.851365E-01    0.970015E-02    0.160000E-02
    0.862412E-01    0.970015E-02    0.160000E-02
    0.873569E-01    0.970015E-02    0.160000E-02
    0.766837E-01    0.100019E-01    0.160000E-02
    0.777039E-01    0.100019E-01    0.160000E-02
    0.787343E-01    0.100019E-01    0.160000E-02
    0.797749E-01    0.100019E-01    0.160000E-02
    0.808260E-01    0.100019E-01    0.160000E-02
    0.818876E-01    0.100019E-01    0.160000E-02
    0.829598E-01    0.100019E-01    0.160000E-02
    0.840427E-01    0.100019E-01    0.160000E-02
    0.851365E-01    0.100019E-01    0.160000E-02
    0.862412E-01    0.100019E-01    0.160000E-02
    0.873569E-01    0.100019E-01    0.160000E-02
    0.766837E-01    0.103127E-01    0.160000E-02
    0.777039E-01    0.103127E-01    0.160000E-02
    0.787343E-01    0.103127E-01    0.160000E-02
    0.797749E-01    0.103127E-01    0.160000E-02
    0.808260E-01    0.103127E-01    0.160000E-02
    0.818876E-01    0.103127E-01    0.160000E-02
    0.829598E-01    0.103127E-01    0.160000E-02
    0.840427E-01    0.103127E-01    0.160000E-02
    0.851365E-01    0.103127E-01    0.160000E-02
    0.862412E-01    0.103127E-01    0.160000E-02
    0.873569E-01    0.103127E-01    0.160000E-02
    0.766837E-01    0.106328E-01    0.160000E-02
    0.777039E-01    0.106328E-01    0.160000E-02
    0.787343E-01    0.106328E-01    0.160000E-02
    0.797749E-01    0.106328E-01    0.160000E-02
    0.808260E-01    0.106328E-01    0.160000E-02
    0.818876E-01    0.106328E-01    0.160000E-02
    0.829598E-01    0.106328E-01    0.160000E-02
    0.840427E-01    0.106328E-01    0.160000E-02
    0.851365E-01    0.106328E-01    0.160000E-02
    0.862412E-01    0.106328E-01    0.160000E-02
    0.873569E-01    0.106328E-01    0.160000E-02
    0.766837E-01    0.109626E-01    0.160000E-02
    0.777039E-01    0.109626E-01    0.160000E-02
    0.787343E-01    0.109626E-01    0.160000E-02
    0.797749E-01    0.109626E-01    0.160000E-02
    0.808260E-01    0.109626E-01    0.160000E-02
    0.818876E-01    0.109626E-01    0.160000E-02
    0.829598E-01    0.109626E-01    0.160000E-02
    0.840427E-01    0.109626E-01    0.160000E-02
    0.851365E-01    0.109626E-01    0.160000E-02
    0.862412E-01    0.109626E-01    0.160000E-02
    0.873569E-01    0.109626E-01    0.160000E-02
    0.766837E-01    0.113022E-01    0.160000E-02
    0.777039E-01    0.113022E-01    0.160000E-02
    0.787343E-01    0.113022E-01    0.160000E-02
    0.797749E-01    0.113022E-01    0.160000E-02
    0.808260E-01    0.113022E-01    0.160000E-02
    0.818876E-01    0.113022E-01    0.160000E-02
    0.829598E-01    0.113022E-01    0.160000E-02
    0.840427E-01    0.113022E-01    0.160000E-02
    0.851365E-01    0.113022E-01    0.160000E-02
    0.862412E-01    0.113022E-01    0.160000E-02
    0.873569E-01    0.113022E-01    0.160000E-02
    0.766837E-01    0.116520E-01    0.160000E-02
    0.777039E-01    0.116520E-01    0.160000E-02
    0.787343E-01    0.116520E-01    0.160000E-02
    0.797749E-01    0.116520E-01    0.160000E-02
    0.808260E-01    0.116520E-01    0.160000E-02
    0.818876E-01    0.116520E-01    0.160000E-02
    0.829598E-01    0.116520E-01    0.160000E-02
    0.840427E-01    0.116520E-01    0.160000E-02
    0.851365E-01    0.116520E-01    0.160000E-02
    0.862412E-01    0.116520E-01    0.160000E-02
    0.873569E-01    0.116520E-01    0.160000E-02
    0.766837E-01    0.120123E-01    0.160000E-02
    0.777039E-01    0.120123E-01    0.160000E-02
    0.787343E-01    0.120123E-01    0.160000E-02
    0.797749E-01    0.120123E-01    0.160000E-02
    0.808260E-01    0.120123E-01    0.160000E-02
    0.818876E-01    0.120123E-01    0.160000E-02
    0.829598E-01    0.120123E-01    0.160000E-02
    0.840427E-01    0.120123E-01    0.160000E-02
    0.851365E-01    0.120123E-01    0.160000E-02
    0.862412E-01    0.120123E-01    0.160000E-02
    0.873569E-01    0.120123E-01    0.160000E-02
    0.766837E-01    0.123834E-01    0.160000E-02
    0.777039E-01    0.123834E-01    0.160000E-02
    0.787343E-01    0.123834E-01    0.160000E-02
    0.797749E-01    0.123834E-01    0.160000E-02
    0.808260E-01    0.123834E-01    0.160000E-02
    0.818876E-01    0.123834E-01    0.160000E-02
    0.829598E-01    0.123834E-01    0.160000E-02
    0.840427E-01    0.123834E-01    0.160000E-02
    0.851365E-01    0.123834E-01    0.160000E-02
    0.862412E-01    0.123834E-01    0.160000E-02
    0.873569E-01    0.123834E-01    0.160000E-02
</DataArray>
</Points>
<PointData>
<DataArray Name="Velocity" type="Float64" format="ascii" NumberOfComponents="3">
    0.883809E-01   -0.765028E-05    0.000000E+00
    0.883824E-01   -0.717331E-05    0.000000E+00
    0.883839E-01   -0.665880E-05    0.000000E+00
    0.883853E-01   -0.617613E-05    0.000000E+00
    0.883865E-01   -0.572382E-05    0.000000E+00
    0.883877E-01   -0.530038E-05    0.000000E+00
    0.883888E-01   -0.490426E-05    0.000000E+00
    0.883899E-01   -0.453393E-05    0.000000E+00
    0.883908E-01   -0.418801E-05    0.000000E+00
    0.883918E-01   -0.386522E-05    0.000000E+00
    0.883926E-01   -0.356431E-05    0.000000E+00
    0.883810E-01   -0.785451E-05    0.000000E+00
    0.883826E-01   -0.736461E-05    0.000000E+00
    0.883840E-01   -0.683624E-05    0.000000E+00
    0.883853E-01   -0.634070E-05    0.000000E+00
    0.883866E-01   -0.587645E-05    0.000000E+00
    0.883878E-01   -0.544184E-05    0.000000E+00
    0.883889E-01   -0.503514E-05    0.000000E+00
    0.883899E-01   -0.465467E-05    0.000000E+00
    0.883909E-01   -0.429915E-05    0.000000E+00
    0.883918E-01   -0.396753E-05    0.000000E+00
    0.883927E-01   -0.365863E-05    0.000000E+00
    0.883811E-01   -0.806459E-05    0.000000E+00
    0.883826E-01   -0.756156E-05    0.000000E+00
    0.883841E-01   -0.701905E-05    0.000000E+00
    0.883854E-01   -0.651026E-05    0.000000E+00
    0.883867E-01   -0.603357E-05    0.000000E+00
    0.883879E-01   -0.558732E-05    0.000000E+00
    0.883890E-01   -0.516976E-05    0.000000E+00
    0.883900E-01   -0.477921E-05    0.000000E+00
    0.883910E-01   -0.441432E-05    0.000000E+00
    0.883919E-01   -0.407393E-05    0.000000E+00
    0.883927E-01   -0.375680E-05    0.000000E+00
    0.883812E-01   -0.828006E-05    0.000000E+00
    0.883827E-01   -0.776354E-05    0.000000E+00
    0.883842E-01   -0.720651E-05    0.000000E+00
    0.883855E-01   -0.668411E-05    0.000000E+00
    0.883868E-01   -0.619468E-05    0.000000E+00
    0.883879E-01   -0.573649E-05    0.000000E+00
    0.883890E-01   -0.530778E-05    0.000000E+00
    0.883901E-01   -0.490688E-05    0.000000E+00
    0.883910E-01   -0.453236E-05    0.000000E+00
    0.883919E-01   -0.418296E-05    0.000000E+00
    0.883928E-01   -0.385740E-05    0.000000E+00
    0.883813E-01   -0.850044E-05    0.000000E+00
    0.883829E-01   -0.797012E-05    0.000000E+00
    0.883843E-01   -0.739821E-05    0.000000E+00
    0.883856E-01   -0.686189E-05    0.000000E+00
    0.883869E-01   -0.635940E-05    0.000000E+00
    0.883880E-01   -0.588901E-05    0.000000E+00
    0.883891E-01   -0.544891E-05    0.000000E+00
    0.883901E-01   -0.503741E-05    0.000000E+00
    0.883911E-01   -0.465302E-05    0.000000E+00
    0.883920E-01   -0.429439E-05    0.000000E+00
    0.883928E-01   -0.396020E-05    0.000000E+00
    0.883815E-01   -0.872507E-05    0.000000E+00
    0.883830E-01   -0.818067E-05    0.000000E+00
    0.883844E-01   -0.759359E-05    0.000000E+00
    0.883858E-01   -0.704305E-05    0.000000E+00
    0.883870E-01   -0.652726E-05    0.000000E+00
    0.883882E-01   -0.604442E-05    0.000000E+00
    0.883892E-01   -0.559272E-05    0.000000E+00
    0.883903E-01   -0.517041E-05    0.000000E+00
    0.883912E-01   -0.477594E-05    0.000000E+00
    0.883921E-01   -0.440790E-05    0.000000E+00
    0.883929E-01   -0.406491E-05    0.000000E+00
    0.883817E-01   -0.895315E-05    0.000000E+00
    0.883832E-01   -0.839443E-05    0.000000E+00
    0.883846E-01   -0.779194E-05    0.000000E+00
    0.883859E-01   -0.722696E-05    0.000000E+00
    0.883872E-01   -0.669766E-05    0.000000E+00
    0.883883E-01   -0.620219E-05    0.000000E+00
    0.883894E-01   -0.573869E-05    0.000000E+00
    0.883904E-01   -0.530540E-05    0.000000E+00
    0.883913E-01   -0.490068E-05    0.000000E+00
    0.883922E-01   -0.452307E-05    0.000000E+00
    0.883930E-01   -0.417115E-05    0.000000E+00
    0.883820E-01   -0.918373E-05    0.000000E+00
    0.883835E-01   -0.861053E-05    0.000000E+00
    0.883849E-01   -0.799244E-05    0.000000E+00
    0.883861E-01   -0.741285E-05    0.000000E+00
    0.883874E-01   -0.686989E-05    0.000000E+00
    0.883885E-01   -0.636165E-05    0.000000E+00
    0.883895E-01   -0.588624E-05    0.000000E+00
    0.883905E-01   -0.544184E-05    0.000000E+00
    0.883915E-01   -0.502675E-05    0.000000E+00
    0.883923E-01   -0.463946E-05    0.000000E+00
    0.883931E-01   -0.427851E-05    0.000000E+00
    0.883823E-01   -0.941579E-05    0.000000E+00
    0.883837E-01   -0.882802E-05    0.000000E+00
    0.883851E-01   -0.819421E-05    0.000000E+00
    0.883864E-01   -0.759992E-05    0.000000E+00
    0.883876E-01   -0.704319E-05    0.000000E+00
    0.883887E-01   -0.652211E-05    0.000000E+00
    0.883897E-01   -0.603472E-05    0.000000E+00
    0.883907E-01   -0.557913E-05    0.000000E+00
    0.883916E-01   -0.515359E-05    0.000000E+00
    0.883925E-01   -0.475654E-05    0.000000E+00
    0.883933E-01   -0.438650E-05    0.000000E+00
    0.883826E-01   -0.964830E-05    0.000000E+00
    0.883841E-01   -0.904592E-05    0.000000E+00
    0.883854E-01   -0.839636E-05    0.000000E+00
    0.883867E-01   -0.778732E-05    0.000000E+00
    0.883878E-01   -0.721681E-05    0.000000E+00
    0.883889E-01   -0.668286E-05    0.000000E+00
    0.883899E-01   -0.618346E-05    0.000000E+00
    0.883909E-01   -0.571666E-05    0.000000E+00
    0.883918E-01   -0.528064E-05    0.000000E+00
    0.883926E-01   -0.487380E-05    0.000000E+00
    0.883934E-01   -0.449465E-05    0.000000E+00
    0.883830E-01   -0.987995E-05    0.000000E+00
    0.883844E-01   -0.926317E-05    0.000000E+00
    0.883857E-01   -0.859820E-05    0.000000E+00
    0.883869E-01   -0.797466E-05    0.000000E+00
    0.883881E-01   -0.739041E-05    0.000000E+00
    0.883892E-01   -0.684344E-05    0.000000E+00
    0.883902E-01   -0.633176E-05    0.000000E+00
    0.883911E-01   -0.585349E-05    0.000000E+00
    0.883920E-01   -0.540686E-05    0.000000E+00
    0.883928E-01   -0.499014E-05    0.000000E+00
    0.883936E-01   -0.460170E-05    0.000000E+00
    0.883809E-01   -0.772126E-05    0.189116E-20
    0.883824E-01   -0.717331E-05    0.175696E-20
    0.883839E-01   -0.665880E-05    0.163093E-20
    0.883852E-01   -0.617613E-05    0.151271E-20
    0.883865E-01   -0.572382E-05    0.140193E-20
    0.883877E-01   -0.530038E-05    0.129822E-20
    0.883888E-01   -0.490426E-05    0.120120E-20
    0.883899E-01   -0.453393E-05    0.111049E-20
    0.883908E-01   -0.418801E-05    0.102577E-20
    0.883917E-01   -0.386522E-05    0.946706E-21
    0.883926E-01   -0.356431E-05    0.873003E-21
    0.883810E-01   -0.792741E-05    0.194166E-20
    0.883826E-01   -0.736461E-05    0.180381E-20
    0.883840E-01   -0.683624E-05    0.167440E-20
    0.883853E-01   -0.634070E-05    0.155302E-20
    0.883866E-01   -0.587645E-05    0.143931E-20
    0.883878E-01   -0.544184E-05    0.133287E-20
    0.883889E-01   -0.503514E-05    0.123325E-20
    0.883899E-01   -0.465467E-05    0.114006E-20
    0.883909E-01   -0.429915E-05    0.105299E-20
    0.883918E-01   -0.396753E-05    0.971766E-21
    0.883927E-01   -0.365863E-05    0.896106E-21
    0.883811E-01   -0.813945E-05    0.199359E-20
    0.883826E-01   -0.756156E-05    0.185205E-20
    0.883841E-01   -0.701905E-05    0.171917E-20
    0.883854E-01   -0.651026E-05    0.159455E-20
    0.883867E-01   -0.603357E-05    0.147780E-20
    0.883879E-01   -0.558732E-05    0.136850E-20
    0.883890E-01   -0.516976E-05    0.126623E-20
    0.883900E-01   -0.477921E-05    0.117057E-20
    0.883910E-01   -0.441432E-05    0.108120E-20
    0.883919E-01   -0.407393E-05    0.997825E-21
    0.883927E-01   -0.375680E-05    0.920150E-21
    0.883812E-01   -0.835693E-05    0.204686E-20
    0.883827E-01   -0.776354E-05    0.190152E-20
    0.883842E-01   -0.720651E-05    0.176509E-20
    0.883855E-01   -0.668411E-05    0.163714E-20
    0.883868E-01   -0.619468E-05    0.151726E-20
    0.883879E-01   -0.573649E-05    0.140503E-20
    0.883890E-01   -0.530778E-05    0.130003E-20
    0.883901E-01   -0.490688E-05    0.120184E-20
    0.883910E-01   -0.453236E-05    0.111011E-20
    0.883919E-01   -0.418296E-05    0.102453E-20
    0.883928E-01   -0.385740E-05    0.944790E-21
    0.883813E-01   -0.857937E-05    0.210134E-20
    0.883829E-01   -0.797012E-05    0.195212E-20
    0.883843E-01   -0.739821E-05    0.181204E-20
    0.883856E-01   -0.686189E-05    0.168068E-20
    0.883869E-01   -0.635940E-05    0.155760E-20
    0.883880E-01   -0.588901E-05    0.144239E-20
    0.883891E-01   -0.544891E-05    0.133460E-20
    0.883901E-01   -0.503741E-05    0.123381E-20
    0.883911E-01   -0.465302E-05    0.113966E-20
    0.883920E-01   -0.429439E-05    0.105182E-20
    0.883928E-01   -0.396020E-05    0.969969E-21
    0.883815E-01   -0.880610E-05    0.215687E-20
    0.883830E-01   -0.818067E-05    0.200369E-20
    0.883844E-01   -0.759359E-05    0.185989E-20
    0.883858E-01   -0.704305E-05    0.172505E-20
    0.883870E-01   -0.652726E-05    0.159872E-20
    0.883882E-01   -0.604442E-05    0.148046E-20
    0.883892E-01   -0.559272E-05    0.136982E-20
    0.883903E-01   -0.517041E-05    0.126639E-20
    0.883912E-01   -0.477594E-05    0.116977E-20
    0.883921E-01   -0.440790E-05    0.107962E-20
    0.883929E-01   -0.406491E-05    0.995616E-21
    0.883817E-01   -0.903630E-05    0.221326E-20
    0.883832E-01   -0.839443E-05    0.205604E-20
    0.883846E-01   -0.779194E-05    0.190847E-20
    0.883859E-01   -0.722696E-05    0.177009E-20
    0.883872E-01   -0.669766E-05    0.164045E-20
    0.883883E-01   -0.620219E-05    0.151910E-20
    0.883894E-01   -0.573869E-05    0.140557E-20
    0.883904E-01   -0.530540E-05    0.129945E-20
    0.883913E-01   -0.490068E-05    0.120032E-20
    0.883922E-01   -0.452307E-05    0.110783E-20
    0.883930E-01   -0.417115E-05    0.102164E-20
    0.883820E-01   -0.926903E-05    0.227026E-20
    0.883835E-01   -0.861053E-05    0.210897E-20
    0.883849E-01   -0.799244E-05    0.195758E-20
    0.883861E-01   -0.741285E-05    0.181563E-20
    0.883874E-01   -0.686989E-05    0.168264E-20
    0.883885E-01   -0.636165E-05    0.155815E-20
    0.883895E-01   -0.588624E-05    0.144171E-20
    0.883905E-01   -0.544184E-05    0.133287E-20
    0.883915E-01   -0.502675E-05    0.123120E-20
    0.883923E-01   -0.463946E-05    0.113634E-20
    0.883931E-01   -0.427851E-05    0.104793E-20
    0.883823E-01   -0.950326E-05    0.232763E-20
    0.883837E-01   -0.882802E-05    0.216224E-20
    0.883851E-01   -0.819421E-05    0.200700E-20
    0.883864E-01   -0.759992E-05    0.186144E-20
    0.883876E-01   -0.704319E-05    0.172509E-20
    0.883887E-01   -0.652211E-05    0.159746E-20
    0.883897E-01   -0.603472E-05    0.147808E-20
    0.883907E-01   -0.557913E-05    0.136649E-20
    0.883916E-01   -0.515359E-05    0.126227E-20
    0.883925E-01   -0.475654E-05    0.116502E-20
    0.883933E-01   -0.438650E-05    0.107438E-20
    0.883826E-01   -0.973795E-05    0.238511E-20
    0.883841E-01   -0.904592E-05    0.221561E-20
    0.883854E-01   -0.839636E-05    0.205652E-20
    0.883867E-01   -0.778732E-05    0.190734E-20
    0.883878E-01   -0.721681E-05    0.176761E-20
    0.883889E-01   -0.668286E-05    0.163683E-20
    0.883899E-01   -0.618346E-05    0.151451E-20
    0.883909E-01   -0.571666E-05    0.140018E-20
    0.883918E-01   -0.528064E-05    0.129338E-20
    0.883926E-01   -0.487380E-05    0.119374E-20
    0.883934E-01   -0.449465E-05    0.110087E-20
    0.883830E-01   -0.997176E-05    0.244238E-20
    0.883844E-01   -0.926317E-05    0.226882E-20
    0.883857E-01   -0.859820E-05    0.210595E-20
    0.883869E-01   -0.797466E-05    0.195323E-20
    0.883881E-01   -0.739041E-05    0.181013E-20
    0.883892E-01   -0.684344E-05    0.167616E-20
    0.883902E-01   -0.633176E-05    0.155083E-20
    0.883911E-01   -0.585349E-05    0.143369E-20
    0.883920E-01   -0.540686E-05    0.132430E-20
    0.883928E-01   -0.499014E-05    0.122223E-20
    0.883936E-01   -0.460170E-05    0.112709E-20
</DataArray>
</PointData>
<CellData>
<DataArray Name="DP" type="Float64" format="ascii" NumberOfComponents="1">
      0.000000E+0000
      0.000000E+0000
      0.000000E+0000
      0.000000E+0000
      0.000000E+0000
      0.000000E+0000
      0.000000E+0000
      0.000000E+0000
      0.000000E+0000
      0.000000E+0000
      0.000000E+0000
      0.000000E+0000
      0.000000E+0000
      0.000000E+0000
      0.000000E+0000
      0.000000E+0000
      0.000000E+0000
      0.000000E+0000
      0.000000E+0000
      0.000000E+0000
      0.000000E+0000
      0.000000E+0000
      0.000000E+0000
      0.000000E+0000
      0.000000E+0000
      0.000000E+0000
      0.000000E+0000
      0.000000E+0000
      0.000000E+0000
      0.000000E+0000
      0.000000E+0000
      0.000000E+0000
      0.000000E+0000
      0.000000E+0000
      0.000000E+0000
      0.000000E+0000
      0.000000E+0000
      0.000000E+0000
      0.000000E+0000
      0.000000E+0000
      0.000000E+0000
      0.000000E+0000
      0.000000E+0000
      0.000000E+0000
      0.000000E+0000
      0.000000E+0000
      0.000000E+0000
      0.000000E+0000
      0.000000E+0000
      0.000000E+0000
      0.000000E+0000
      0.000000E+0000
      0.000000E+0000
      0.000000E+0000
      0.000000E+0000
      0.000000E+0000
      0.000000E+0000
      0.000000E+0000
      0.000000E+0000
      0.000000E+0000
      0.000000E+0000
      0.000000E+0000
      0.000000E+0000
      0.000000E+0000
      0.000000E+0000
      0.000000E+0000
      0.000000E+0000
      0.000000E+0000
      0.000000E+0000
      0.000000E+0000
      0.000000E+0000
      0.000000E+0000
      0.000000E+0000
      0.000000E+0000
      0.000000E+0000
      0.000000E+0000
      0.000000E+0000
      0.000000E+0000
      0.000000E+0000
      0.000000E+0000
      0.000000E+0000
      0.000000E+0000
      0.000000E+0000
      0.000000E+0000
      0.000000E+0000
      0.000000E+0000
      0.000000E+0000
      0.000000E+0000
      0.000000E+0000
      0.000000E+0000
      0.000000E+0000
      0.000000E+0000
      0.000000E+0000
      0.000000E+0000
      0.000000E+0000
      0.000000E+0000
      0.000000E+0000
      0.000000E+0000
      0.000000E+0000
      0.000000E+0000
</DataArray>
<DataArray Name="P" type="Float64" format="ascii" NumberOfComponents="1">
     -0.254366E+0000
     -0.266152E+0000
     -0.278054E+0000
     -0.290076E+0000
     -0.302218E+0000
     -0.314480E+0000
     -0.326865E+0000
     -0.339374E+0000
     -0.352010E+0000
     -0.364772E+0000
     -0.254365E+0000
     -0.266151E+0000
     -0.278054E+0000
     -0.290075E+0000
     -0.302217E+0000
     -0.314480E+0000
     -0.326865E+0000
     -0.339375E+0000
     -0.352010E+0000
     -0.364772E+0000
     -0.254364E+0000
     -0.266150E+0000
     -0.278053E+0000
     -0.290075E+0000
     -0.302217E+0000
     -0.314480E+0000
     -0.326865E+0000
     -0.339375E+0000
     -0.352010E+0000
     -0.364773E+0000
     -0.254362E+0000
     -0.266149E+0000
     -0.278052E+0000
     -0.290074E+0000
     -0.302216E+0000
     -0.314479E+0000
     -0.326865E+0000
     -0.339375E+0000
     -0.352010E+0000
     -0.364773E+0000
     -0.254361E+0000
     -0.266148E+0000
     -0.278052E+0000
     -0.290074E+0000
     -0.302216E+0000
     -0.314479E+0000
     -0.326865E+0000
     -0.339375E+0000
     -0.352010E+0000
     -0.364773E+0000
     -0.254360E+0000
     -0.266147E+0000
     -0.278051E+0000
     -0.290073E+0000
     -0.302215E+0000
     -0.314479E+0000
     -0.326865E+0000
     -0.339375E+0000
     -0.352011E+0000
     -0.364773E+0000
     -0.254359E+0000
     -0.266146E+0000
     -0.278050E+0000
     -0.290073E+0000
     -0.302215E+0000
     -0.314478E+0000
     -0.326864E+0000
     -0.339375E+0000
     -0.352011E+0000
     -0.364773E+0000
     -0.254359E+0000
     -0.266146E+0000
     -0.278050E+0000
     -0.290072E+0000
     -0.302215E+0000
     -0.314478E+0000
     -0.326864E+0000
     -0.339375E+0000
     -0.352011E+0000
     -0.364774E+0000
     -0.254358E+0000
     -0.266145E+0000
     -0.278049E+0000
     -0.290072E+0000
     -0.302214E+0000
     -0.314478E+0000
     -0.326864E+0000
     -0.339374E+0000
     -0.352011E+0000
     -0.364774E+0000
     -0.254357E+0000
     -0.266145E+0000
     -0.278049E+0000
     -0.290072E+0000
     -0.302214E+0000
     -0.314477E+0000
     -0.326864E+0000
     -0.339374E+0000
     -0.352011E+0000
     -0.364774E+0000
</DataArray>
<DataArray Name="RHO" type="Float64" format="ascii" NumberOfComponents="1">
      0.117197E+0001
      0.117197E+0001
      0.117197E+0001
      0.117197E+0001
      0.117197E+0001
      0.117197E+0001
      0.117197E+0001
      0.117197E+0001
      0.117197E+0001
      0.117197E+0001
      0.117197E+0001
      0.117197E+0001
      0.117197E+0001
      0.117197E+0001
      0.117197E+0001
      0.117197E+0001
      0.117197E+0001
      0.117197E+0001
      0.117197E+0001
      0.117197E+0001
      0.117197E+0001
      0.117197E+0001
      0.117197E+0001
      0.117197E+0001
      0.117197E+0001
      0.117197E+0001
      0.117197E+0001
      0.117197E+0001
      0.117197E+0001
      0.117197E+0001
      0.117197E+0001
      0.117197E+0001
      0.117197E+0001
      0.117197E+0001
      0.117197E+0001
      0.117197E+0001
      0.117197E+0001
      0.117197E+0001
      0.117197E+0001
      0.117197E+0001
      0.117197E+0001
      0.117197E+0001
      0.117197E+0001
      0.117197E+0001
      0.117197E+0001
      0.117197E+0001
      0.117197E+0001
      0.117197E+0001
      0.117197E+0001
      0.117197E+0001
      0.117197E+0001
      0.117197E+0001
      0.117197E+0001
      0.117197E+0001
      0.117197E+0001
      0.117197E+0001
      0.117197E+0001
      0.117197E+0001
      0.117197E+0001
      0.117197E+0001
      0.117197E+0001
      0.117197E+0001