<?xml version="1.0"?>
<VTKFile type="StructuredGrid" version="0.1" byte_order="LittleEndian">
<StructuredGrid WholeExtent="          10          20           0          10           0           1">
<Piece Extent="          10          20           0          10           0           1">
<Points>
<DataArray NumberOfComponents="3" type="Float64" format="ascii">
    0.265033E-02    0.000000E+00    0.000000E+00
    0.293016E-02    0.000000E+00    0.000000E+00
    0.321278E-02    0.000000E+00    0.000000E+00
    0.349824E-02    0.000000E+00    0.000000E+00
    0.378654E-02    0.000000E+00    0.000000E+00
    0.407773E-02    0.000000E+00    0.000000E+00
    0.437183E-02    0.000000E+00    0.000000E+00
    0.466888E-02    0.000000E+00    0.000000E+00
    0.496889E-02    0.000000E+00    0.000000E+00
    0.527190E-02    0.000000E+00    0.000000E+00
    0.557795E-02    0.000000E+00    0.000000E+00
    0.265033E-02    0.288897E-03    0.000000E+00
    0.293016E-02    0.288897E-03    0.000000E+00
    0.321278E-02    0.288897E-03    0.000000E+00
    0.349824E-02    0.288897E-03    0.000000E+00
    0.378654E-02    0.288897E-03    0.000000E+00
    0.407773E-02    0.288897E-03    0.000000E+00
    0.437183E-02    0.288897E-03    0.000000E+00
    0.466888E-02    0.288897E-03    0.000000E+00
    0.496889E-02    0.288897E-03    0.000000E+00
    0.527190E-02    0.288897E-03    0.000000E+00
    0.557795E-02    0.288897E-03    0.000000E+00
    0.265033E-02    0.572017E-03    0.000000E+00
    0.293016E-02    0.572017E-03    0.000000E+00
    0.321278E-02    0.572017E-03    0.000000E+00
    0.349824E-02    0.572017E-03    0.000000E+00
    0.378654E-02    0.572017E-03    0.000000E+00
    0.407773E-02    0.572017E-03    0.000000E+00
    0.437183E-02    0.572017E-03    0.000000E+00
    0.466888E-02    0.572017E-03    0.000000E+00
    0.496889E-02    0.572017E-03    0.000000E+00
    0.527190E-02    0.572017E-03    0.000000E+00
    0.557795E-02    0.572017E-03    0.000000E+00
    0.265033E-02    0.849473E-03    0.000000E+00
    0.293016E-02    0.849473E-03    0.000000E+00
    0.321278E-02    0.849473E-03    0.000000E+00
    0.349824E-02    0.849473E-03    0.000000E+00
    0.378654E-02    0.849473E-03    0.000000E+00
    0.407773E-02    0.849473E-03    0.000000E+00
    0.437183E-02    0.849473E-03    0.000000E+00
    0.466888E-02    0.849473E-03    0.000000E+00
    0.496889E-02    0.849473E-03    0.000000E+00
    0.527190E-02    0.849473E-03    0.000000E+00
    0.557795E-02    0.849473E-03    0.000000E+00
    0.265033E-02    0.112138E-02    0.000000E+00
    0.293016E-02    0.112138E-02    0.000000E+00
    0.321278E-02    0.112138E-02    0.000000E+00
    0.349824E-02    0.112138E-02    0.000000E+00
    0.378654E-02    0.112138E-02    0.000000E+00
    0.407773E-02    0.112138E-02    0.000000E+00
    0.437183E-02    0.112138E-02    0.000000E+00
    0.466888E-02    0.112138E-02    0.000000E+00
    0.496889E-02    0.112138E-02    0.000000E+00
    0.527190E-02    0.112138E-02    0.000000E+00
    0.557795E-02    0.112138E-02    0.000000E+00
    0.265033E-02    0.138785E-02    0.000000E+00
    0.293016E-02    0.138785E-02    0.000000E+00
    0.321278E-02    0.138785E-02    0.000000E+00
    0.349824E-02    0.138785E-02    0.000000E+00
    0.378654E-02    0.138785E-02    0.000000E+00
    0.407773E-02    0.138785E-02    0.000000E+00
    0.437183E-02    0.138785E-02    0.000000E+00
    0.466888E-02    0.138785E-02    0.000000E+00
    0.496889E-02    0.138785E-02    0.000000E+00
    0.527190E-02    0.138785E-02    0.000000E+00
    0.557795E-02    0.138785E-02    0.000000E+00
    0.265033E-02    0.164899E-02    0.000000E+00
    0.293016E-02    0.164899E-02    0.000000E+00
    0.321278E-02    0.164899E-02    0.000000E+00
    0.349824E-02    0.164899E-02    0.000000E+00
    0.378654E-02    0.164899E-02    0.000000E+00
    0.407773E-02    0.164899E-02    0.000000E+00
    0.437183E-02    0.164899E-02    0.000000E+00
    0.466888E-02    0.164899E-02    0.000000E+00
    0.496889E-02    0.164899E-02    0.000000E+00
    0.527190E-02    0.164899E-02    0.000000E+00
    0.557795E-02    0.164899E-02    0.000000E+00
    0.265033E-02    0.190491E-02    0.000000E+00
    0.293016E-02    0.190491E-02    0.000000E+00
    0.321278E-02    0.190491E-02    0.000000E+00
    0.349824E-02    0.190491E-02    0.000000E+00
    0.378654E-02    0.190491E-02    0.000000E+00
    0.407773E-02    0.190491E-02    0.000000E+00
    0.437183E-02    0.190491E-02    0.000000E+00
    0.466888E-02    0.190491E-02    0.000000E+00
    0.496889E-02    0.190491E-02    0.000000E+00
    0.527190E-02    0.190491E-02    0.000000E+00
    0.557795E-02    0.190491E-02    0.000000E+00
    0.265033E-02    0.215571E-02    0.000000E+00
    0.293016E-02    0.215571E-02    0.000000E+00
    0.321278E-02    0.215571E-02    0.000000E+00
    0.349824E-02    0.215571E-02    0.000000E+00
    0.378654E-02    0.215571E-02    0.000000E+00
    0.407773E-02    0.215571E-02    0.000000E+00
    0.437183E-02    0.215571E-02    0.000000E+00
    0.466888E-02    0.215571E-02    0.000000E+00
    0.496889E-02    0.215571E-02    0.000000E+00
    0.527190E-02    0.215571E-02    0.000000E+00
    0.557795E-02    0.215571E-02    0.000000E+00
    0.265033E-02    0.240149E-02    0.000000E+00
    0.293016E-02    0.240149E-02    0.000000E+00
    0.321278E-02    0.240149E-02    0.000000E+00
    0.349824E-02    0.240149E-02    0.000000E+00
    0.378654E-02    0.240149E-02    0.000000E+00
    0.407773E-02    0.240149E-02    0.000000E+00
    0.437183E-02    0.240149E-02    0.000000E+00
    0.466888E-02    0.240149E-02    0.000000E+00
    0.496889E-02    0.240149E-02    0.000000E+00
    0.527190E-02    0.240149E-02    0.000000E+00
    0.557795E-02    0.240149E-02    0.000000E+00
    0.265033E-02    0.264236E-02    0.000000E+00
    0.293016E-02    0.264236E-02    0.000000E+00
    0.321278E-02    0.264236E-02    0.000000E+00
    0.349824E-02    0.264236E-02    0.000000E+00
    0.378654E-02    0.264236E-02    0.000000E+00
    0.407773E-02    0.264236E-02    0.000000E+00
    0.437183E-02    0.264236E-02    0.000000E+00
    0.466888E-02    0.264236E-02    0.000000E+00
    0.496889E-02    0.264236E-02    0.000000E+00
    0.527190E-02    0.264236E-02    0.000000E+00
    0.557795E-02    0.264236E-02    0.000000E+00
    0.265033E-02    0.000000E+00    0.160000E-02
    0.293016E-02    0.000000E+00    0.160000E-02
    0.321278E-02    0.000000E+00    0.160000E-02
    0.349824E-02    0.000000E+00    0.160000E-02
    0.378654E-02    0.000000E+00    0.160000E-02
    0.407773E-02    0.000000E+00    0.160000E-02
    0.437183E-02    0.000000E+00    0.160000E-02
    0.466888E-02    0.000000E+00    0.160000E-02
    0.496889E-02    0.000000E+00    0.160000E-02
    0.527190E-02    0.000000E+00    0.160000E-02
    0.557795E-02    0.000000E+00    0.160000E-02
    0.265033E-02    0.288897E-03    0.160000E-02
    0.293016E-02    0.288897E-03    0.160000E-02
    0.321278E-02    0.288897E-03    0.160000E-02
    0.349824E-02    0.288897E-03    0.160000E-02
    0.378654E-02    0.288897E-03    0.160000E-02
    0.407773E-02    0.288897E-03    0.160000E-02
    0.437183E-02    0.288897E-03    0.160000E-02
    0.466888E-02    0.288897E-03    0.160000E-02
    0.496889E-02    0.288897E-03    0.160000E-02
    0.527190E-02    0.288897E-03    0.160000E-02
    0.557795E-02    0.288897E-03    0.160000E-02
    0.265033E-02    0.572017E-03    0.160000E-02
    0.293016E-02    0.572017E-03    0.160000E-02
    0.321278E-02    0.572017E-03    0.160000E-02
    0.349824E-02    0.572017E-03    0.160000E-02
    0.378654E-02    0.572017E-03    0.160000E-02
    0.407773E-02    0.572017E-03    0.160000E-02
    0.437183E-02    0.572017E-03    0.160000E-02
    0.466888E-02    0.572017E-03    0.160000E-02
    0.496889E-02    0.572017E-03    0.160000E-02
    0.527190E-02    0.572017E-03    0.160000E-02
    0.557795E-02    0.572017E-03    0.160000E-02
    0.265033E-02    0.849473E-03    0.160000E-02
    0.293016E-02    0.849473E-03    0.160000E-02
    0.321278E-02    0.849473E-03    0.160000E-02
    0.349824E-02    0.849473E-03    0.160000E-02
    0.378654E-02    0.849473E-03    0.160000E-02
    0.407773E-02    0.849473E-03    0.160000E-02
    0.437183E-02    0.849473E-03    0.160000E-02
    0.466888E-02    0.849473E-03    0.160000E-02
    0.496889E-02    0.849473E-03    0.160000E-02
    0.527190E-02    0.849473E-03    0.160000E-02
    0.557795E-02    0.849473E-03    0.160000E-02
    0.265033E-02    0.112138E-02    0.160000E-02
    0.293016E-02    0.112138E-02    0.160000E-02
    0.321278E-02    0.112138E-02    0.160000E-02
    0.349824E-02    0.112138E-02    0.160000E-02
    0.378654E-02    0.112138E-02    0.160000E-02
    0.407773E-02    0.112138E-02    0.160000E-02
    0.437183E-02    0.112138E-02    0.160000E-02
    0.466888E-02    0.112138E-02    0.160000E-02
    0.496889E-02    0.112138E-02    0.160000E-02
    0.527190E-02    0.112138E-02    0.160000E-02
    0.557795E-02    0.112138E-02    0.160000E-02
    0.265033E-02    0.138785E-02    0.160000E-02
    0.293016E-02    0.138785E-02    0.160000E-02
    0.321278E-02    0.138785E-02    0.160000E-02
    0.349824E-02    0.138785E-02    0.160000E-02
    0.378654E-02    0.138785E-02    0.160000E-02
    0.407773E-02    0.138785E-02    0.160000E-02
    0.437183E-02    0.138785E-02    0.160000E-02
    0.466888E-02    0.138785E-02    0.160000E-02
    0.496889E-02    0.138785E-02    0.160000E-02
    0.527190E-02    0.138785E-02    0.160000E-02
    0.557795E-02    0.138785E-02    0.160000E-02
    0.265033E-02    0.164899E-02    0.160000E-02
    0.293016E-02    0.164899E-02    0.160000E-02
    0.321278E-02    0.164899E-02    0.160000E-02
    0.349824E-02    0.164899E-02    0.160000E-02
    0.378654E-02    0.164899E-02    0.160000E-02
    0.407773E-02    0.164899E-02    0.160000E-02
    0.437183E-02    0.164899E-02    0.160000E-02
    0.466888E-02    0.164899E-02    0.160000E-02
    0.496889E-02    0.164899E-02    0.160000E-02
    0.527190E-02    0.164899E-02    0.160000E-02
    0.557795E-02    0.164899E-02    0.160000E-02
    0.265033E-02    0.190491E-02    0.160000E-02
    0.293016E-02    0.190491E-02    0.160000E-02
    0.321278E-02    0.190491E-02    0.160000E-02
    0.349824E-02    0.190491E-02    0.160000E-02
    0.378654E-02    0.190491E-02    0.160000E-02
    0.407773E-02    0.190491E-02    0.160000E-02
    0.437183E-02    0.190491E-02    0.160000E-02
    0.466888E-02    0.190491E-02    0.160000E-02
    0.496889E-02    0.190491E-02    0.160000E-02
    0.527190E-02    0.190491E-02    0.160000E-02
    0.557795E-02    0.190491E-02    0.160000E-02
    0.265033E-02    0.215571E-02    0.160000E-02
    0.293016E-02    0.215571E-02    0.160000E-02
    0.321278E-02    0.215571E-02    0.160000E-02
    0.349824E-02    0.215571E-02    0.160000E-02
    0.378654E-02    0.215571E-02    0.160000E-02
    0.407773E-02    0.215571E-02    0.160000E-02
    0.437183E-02    0.215571E-02    0.160000E-02
    0.466888E-02    0.215571E-02    0.160000E-02
    0.496889E-02    0.215571E-02    0.160000E-02
    0.527190E-02    0.215571E-02    0.160000E-02
    0.557795E-02    0.215571E-02    0.160000E-02
    0.265033E-02    0.240149E-02    0.160000E-02
    0.293016E-02    0.240149E-02    0.160000E-02
    0.321278E-02    0.240149E-02    0.160000E-02
    0.349824E-02    0.240149E-02    0.160000E-02
    0.378654E-02    0.240149E-02    0.160000E-02
    0.407773E-02    0.240149E-02    0.160000E-02
    0.437183E-02    0.240149E-02    0.160000E-02
    0.466888E-02    0.240149E-02    0.160000E-02
    0.496889E-02    0.240149E-02    0.160000E-02
    0.527190E-02    0.240149E-02    0.160000E-02
    0.557795E-02    0.240149E-02    0.160000E-02
    0.265033E-02    0.264236E-02    0.160000E-02
    0.293016E-02    0.264236E-02    0.160000E-02
    0.321278E-02    0.264236E-02    0.160000E-02
    0.349824E-02    0.264236E-02    0.160000E-02
    0.378654E-02    0.264236E-02    0.160000E-02
    0.407773E-02    0.264236E-02    0.160000E-02
    0.437183E-02    0.264236E-02    0.160000E-02
    0.466888E-02    0.264236E-02    0.160000E-02
    0.496889E-02    0.264236E-02    0.160000E-02
    0.527190E-02    0.264236E-02    0.160000E-02
    0.557795E-02    0.264236E-02    0.160000E-02
</DataArray>
</Points>
<PointData>
<DataArray Name="Velocity" type="Float64" format="ascii" NumberOfComponents="3">
    0.664712E-01    0.000000E+00    0.000000E+00
    0.716129E-01    0.000000E+00    0.000000E+00
    0.770628E-01    0.000000E+00    0.000000E+00
    0.827773E-01    0.000000E+00    0.000000E+00
    0.887116E-01    0.000000E+00    0.000000E+00
    0.948206E-01    0.000000E+00    0.000000E+00
    0.101060E+00    0.000000E+00    0.000000E+00
    0.107387E+00    0.000000E+00    0.000000E+00
    0.113761E+00    0.000000E+00    0.000000E+00
    0.120146E+00    0.000000E+00    0.000000E+00
    0.126507E+00    0.000000E+00    0.000000E+00
    0.664833E-01   -0.263868E-02    0.000000E+00
    0.716229E-01   -0.276556E-02    0.000000E+00
    0.770693E-01   -0.288787E-02    0.000000E+00
    0.827785E-01   -0.298546E-02    0.000000E+00
    0.887053E-01   -0.305857E-02    0.000000E+00
    0.948043E-01   -0.310800E-02    0.000000E+00
    0.101031E+00   -0.313500E-02    0.000000E+00
    0.107342E+00   -0.314125E-02    0.000000E+00
    0.113697E+00   -0.312879E-02    0.000000E+00
    0.120059E+00   -0.310004E-02    0.000000E+00
    0.126395E+00   -0.305759E-02    0.000000E+00
    0.665107E-01   -0.522239E-02    0.000000E+00
    0.716437E-01   -0.547198E-02    0.000000E+00
    0.770791E-01   -0.571191E-02    0.000000E+00
    0.827719E-01   -0.590240E-02    0.000000E+00
    0.886757E-01   -0.604402E-02    0.000000E+00
    0.947440E-01   -0.613838E-02    0.000000E+00
    0.100931E+00   -0.618810E-02    0.000000E+00
    0.107194E+00   -0.619660E-02    0.000000E+00
    0.113492E+00   -0.616818E-02    0.000000E+00
    0.119787E+00   -0.610788E-02    0.000000E+00
    0.126046E+00   -0.602063E-02    0.000000E+00
    0.665345E-01   -0.774939E-02    0.000000E+00
    0.716543E-01   -0.811618E-02    0.000000E+00
    0.770691E-01   -0.846695E-02    0.000000E+00
    0.827319E-01   -0.874310E-02    0.000000E+00
    0.885946E-01   -0.894559E-02    0.000000E+00
    0.946089E-01   -0.907704E-02    0.000000E+00
    0.100728E+00   -0.914158E-02    0.000000E+00
    0.106908E+00   -0.914488E-02    0.000000E+00
    0.113106E+00   -0.909391E-02    0.000000E+00
    0.119287E+00   -0.899601E-02    0.000000E+00
    0.125419E+00   -0.885843E-02    0.000000E+00
    0.665310E-01   -0.102162E-01    0.000000E+00
    0.716280E-01   -0.106932E-01    0.000000E+00
    0.770092E-01   -0.111458E-01    0.000000E+00
    0.826246E-01   -0.114976E-01    0.000000E+00
    0.884234E-01   -0.117501E-01    0.000000E+00
    0.943554E-01   -0.119074E-01    0.000000E+00
    0.100372E+00   -0.119757E-01    0.000000E+00
    0.106427E+00   -0.119635E-01    0.000000E+00
    0.112481E+00   -0.118802E-01    0.000000E+00
    0.118498E+00   -0.117356E-01    0.000000E+00
    0.124448E+00   -0.115399E-01    0.000000E+00
    0.664718E-01   -0.126179E-01    0.000000E+00
    0.715337E-01   -0.131963E-01    0.000000E+00
    0.768646E-01   -0.137390E-01    0.000000E+00
    0.824106E-01   -0.141531E-01    0.000000E+00
    0.881178E-01   -0.144414E-01    0.000000E+00
    0.939331E-01   -0.146100E-01    0.000000E+00
    0.998065E-01   -0.146681E-01    0.000000E+00
    0.105693E+00   -0.146270E-01    0.000000E+00
    0.111554E+00   -0.144989E-01    0.000000E+00
    0.117355E+00   -0.142968E-01    0.000000E+00
    0.123069E+00   -0.140337E-01    0.000000E+00
    0.663274E-01   -0.149482E-01    0.000000E+00
    0.713398E-01   -0.156169E-01    0.000000E+00
    0.766003E-01   -0.162346E-01    0.000000E+00
    0.820507E-01   -0.166941E-01    0.000000E+00
    0.876331E-01   -0.170004E-01    0.000000E+00
    0.932922E-01   -0.171629E-01    0.000000E+00
    0.989784E-01   -0.171940E-01    0.000000E+00
    0.104648E+00   -0.171081E-01    0.000000E+00
    0.110266E+00   -0.169211E-01    0.000000E+00
    0.115800E+00   -0.166495E-01    0.000000E+00
    0.121226E+00   -0.163095E-01    0.000000E+00
    0.660723E-01   -0.172011E-01    0.000000E+00
    0.710193E-01   -0.179454E-01    0.000000E+00
    0.761868E-01   -0.186187E-01    0.000000E+00
    0.815112E-01   -0.191029E-01    0.000000E+00
    0.869315E-01   -0.194063E-01    0.000000E+00
    0.923925E-01   -0.195421E-01    0.000000E+00
    0.978465E-01   -0.195267E-01    0.000000E+00
    0.103253E+00   -0.193789E-01    0.000000E+00
    0.108579E+00   -0.191185E-01    0.000000E+00
    0.113798E+00   -0.187658E-01    0.000000E+00
    0.118892E+00   -0.183400E-01    0.000000E+00
    0.656908E-01   -0.193703E-01    0.000000E+00
    0.705558E-01   -0.201712E-01    0.000000E+00
    0.756048E-01   -0.208762E-01    0.000000E+00
    0.807701E-01   -0.213604E-01    0.000000E+00
    0.859900E-01   -0.216365E-01    0.000000E+00
    0.912115E-01   -0.217227E-01    0.000000E+00
    0.963901E-01   -0.216405E-01    0.000000E+00
    0.101490E+00   -0.214135E-01    0.000000E+00
    0.106482E+00   -0.210662E-01    0.000000E+00
    0.111347E+00   -0.206221E-01    0.000000E+00
    0.116070E+00   -0.201036E-01    0.000000E+00
    0.651823E-01   -0.214495E-01    0.000000E+00
    0.699472E-01   -0.222830E-01    0.000000E+00
    0.748506E-01   -0.229910E-01    0.000000E+00
    0.798233E-01   -0.234465E-01    0.000000E+00
    0.848061E-01   -0.236684E-01    0.000000E+00
    0.897497E-01   -0.236811E-01    0.000000E+00
    0.946147E-01   -0.235121E-01    0.000000E+00
    0.993711E-01   -0.231904E-01    0.000000E+00
    0.103997E+00   -0.227445E-01    0.000000E+00
    0.108478E+00   -0.222016E-01    0.000000E+00
    0.112806E+00   -0.215866E-01    0.000000E+00
    0.645640E-01   -0.234316E-01    0.000000E+00
    0.692091E-01   -0.242684E-01    0.000000E+00
    0.739395E-01   -0.249460E-01    0.000000E+00
    0.786884E-01   -0.253413E-01    0.000000E+00
    0.834010E-01   -0.254812E-01    0.000000E+00
    0.880339E-01   -0.253973E-01    0.000000E+00
    0.925547E-01   -0.251236E-01    0.000000E+00
    0.969409E-01   -0.246942E-01    0.000000E+00
    0.101178E+00   -0.241417E-01    0.000000E+00
    0.105257E+00   -0.234962E-01    0.000000E+00
    0.109177E+00   -0.227844E-01    0.000000E+00
    0.664712E-01    0.000000E+00    0.000000E+00
    0.716129E-01    0.000000E+00    0.000000E+00
    0.770628E-01    0.000000E+00    0.000000E+00
    0.827773E-01    0.000000E+00    0.000000E+00
    0.887116E-01    0.000000E+00    0.000000E+00
    0.948206E-01    0.000000E+00    0.000000E+00
    0.101060E+00    0.000000E+00    0.000000E+00
    0.107387E+00    0.000000E+00    0.000000E+00
    0.113761E+00    0.000000E+00    0.000000E+00
    0.120146E+00    0.000000E+00    0.000000E+00
    0.126507E+00    0.000000E+00    0.000000E+00
    0.664833E-01   -0.261871E-02    0.641399E-18
    0.716229E-01   -0.276556E-02    0.677366E-18
    0.770693E-01   -0.288787E-02    0.707325E-18
    0.827785E-01   -0.298546E-02    0.731226E-18
    0.887053E-01   -0.305857E-02    0.749135E-18
    0.948043E-01   -0.310800E-02    0.761240E-18
    0.101031E+00   -0.313500E-02    0.767853E-18
    0.107342E+00   -0.314125E-02    0.769385E-18
    0.113697E+00   -0.312879E-02    0.766331E-18
    0.120059E+00   -0.310004E-02    0.759290E-18
    0.126395E+00   -0.305759E-02    0.748894E-18
    0.665107E-01   -0.518306E-02    0.126948E-17
    0.716437E-01   -0.547198E-02    0.134025E-17
    0.770791E-01   -0.571191E-02    0.139901E-17
    0.827719E-01   -0.590240E-02    0.144567E-17
    0.886757E-01   -0.604402E-02    0.148036E-17
    0.947440E-01   -0.613838E-02    0.150347E-17
    0.100931E+00   -0.618810E-02    0.151565E-17
    0.107194E+00   -0.619660E-02    0.151773E-17
    0.113492E+00   -0.616818E-02    0.151077E-17
    0.119787E+00   -0.610788E-02    0.149600E-17
    0.126046E+00   -0.602063E-02    0.147463E-17
    0.665345E-01   -0.769146E-02    0.188386E-17
    0.716543E-01   -0.811618E-02    0.198789E-17
    0.770691E-01   -0.846695E-02    0.207380E-17
    0.827319E-01   -0.874310E-02    0.214144E-17
    0.885946E-01   -0.894559E-02    0.219104E-17
    0.946089E-01   -0.907704E-02    0.222323E-17
    0.100728E+00   -0.914158E-02    0.223904E-17
    0.106908E+00   -0.914488E-02    0.223985E-17
    0.113106E+00   -0.909391E-02    0.222737E-17
    0.119287E+00   -0.899601E-02    0.220339E-17
    0.125419E+00   -0.885843E-02    0.216969E-17
    0.665310E-01   -0.101406E-01    0.248373E-17
    0.716280E-01   -0.106932E-01    0.261908E-17
    0.770092E-01   -0.111458E-01    0.272994E-17
    0.826246E-01   -0.114976E-01    0.281610E-17
    0.884234E-01   -0.117501E-01    0.287795E-17
    0.943554E-01   -0.119074E-01    0.291646E-17
    0.100372E+00   -0.119757E-01    0.293319E-17
    0.106427E+00   -0.119635E-01    0.293020E-17
    0.112481E+00   -0.118802E-01    0.290980E-17
    0.118498E+00   -0.117356E-01    0.287440E-17
    0.124448E+00   -0.115399E-01    0.282647E-17
    0.664718E-01   -0.125257E-01    0.306791E-17
    0.715337E-01   -0.131963E-01    0.323215E-17
    0.768646E-01   -0.137390E-01    0.336508E-17
    0.824106E-01   -0.141531E-01    0.346652E-17
    0.881178E-01   -0.144414E-01    0.353712E-17
    0.939331E-01   -0.146100E-01    0.357841E-17
    0.998065E-01   -0.146681E-01    0.359265E-17
    0.105693E+00   -0.146270E-01    0.358259E-17
    0.111554E+00   -0.144989E-01    0.355121E-17
    0.117355E+00   -0.142968E-01    0.350170E-17
    0.123069E+00   -0.140337E-01    0.343727E-17
    0.663274E-01   -0.148410E-01    0.363499E-17
    0.713398E-01   -0.156169E-01    0.382503E-17
    0.766003E-01   -0.162346E-01    0.397632E-17
    0.820507E-01   -0.166941E-01    0.408888E-17
    0.876331E-01   -0.170004E-01    0.416391E-17
    0.932922E-01   -0.171629E-01    0.420370E-17
    0.989784E-01   -0.171940E-01    0.421131E-17
    0.104648E+00   -0.171081E-01    0.419027E-17
    0.110266E+00   -0.169211E-01    0.414448E-17
    0.115800E+00   -0.166495E-01    0.407796E-17
    0.121226E+00   -0.163095E-01    0.399468E-17
    0.660723E-01   -0.170805E-01    0.418352E-17
    0.710193E-01   -0.179454E-01    0.439535E-17
    0.761868E-01   -0.186187E-01    0.456028E-17
    0.815112E-01   -0.191029E-01    0.467886E-17
    0.869315E-01   -0.194063E-01    0.475318E-17
    0.923925E-01   -0.195421E-01    0.478645E-17
    0.978465E-01   -0.195267E-01    0.478267E-17
    0.103253E+00   -0.193789E-01    0.474646E-17
    0.108579E+00   -0.191185E-01    0.468269E-17
    0.113798E+00   -0.187658E-01    0.459630E-17
    0.118892E+00   -0.183400E-01    0.449200E-17
    0.656908E-01   -0.192389E-01    0.471216E-17
    0.705558E-01   -0.201712E-01    0.494052E-17
    0.756048E-01   -0.208762E-01    0.511321E-17
    0.807701E-01   -0.213604E-01    0.523178E-17
    0.859900E-01   -0.216365E-01    0.529942E-17
    0.912115E-01   -0.217227E-01    0.532053E-17
    0.963901E-01   -0.216405E-01    0.530038E-17
    0.101490E+00   -0.214135E-01    0.524480E-17
    0.106482E+00   -0.210662E-01    0.515972E-17
    0.111347E+00   -0.206221E-01    0.505096E-17
    0.116070E+00   -0.201036E-01    0.492397E-17
    0.651823E-01   -0.213105E-01    0.521957E-17
    0.699472E-01   -0.222830E-01    0.545776E-17
    0.748506E-01   -0.229910E-01    0.563118E-17
    0.798233E-01   -0.234465E-01    0.574274E-17
    0.848061E-01   -0.236684E-01    0.579709E-17
    0.897497E-01   -0.236811E-01    0.580020E-17
    0.946147E-01   -0.235121E-01    0.575881E-17
    0.993711E-01   -0.231904E-01    0.568000E-17
    0.103997E+00   -0.227445E-01    0.557079E-17
    0.108478E+00   -0.222016E-01    0.543783E-17
    0.112806E+00   -0.215866E-01    0.528720E-17
    0.645640E-01   -0.232893E-01    0.570424E-17
    0.692091E-01   -0.242684E-01    0.594405E-17
    0.739395E-01   -0.249460E-01    0.611001E-17
    0.786884E-01   -0.253413E-01    0.620684E-17
    0.834010E-01   -0.254812E-01    0.624109E-17
    0.880339E-01   -0.253973E-01    0.622054E-17
    0.925547E-01   -0.251236E-01    0.615350E-17
    0.969409E-01   -0.246942E-01    0.604833E-17
    0.101178E+00   -0.241417E-01    0.591301E-17
    0.105257E+00   -0.234962E-01    0.575490E-17
    0.109177E+00   -0.227844E-01    0.558057E-17
</DataArray>
</PointData>
<CellData>
<DataArray Name="DP" type="Float64" format="ascii" NumberOfComponents="1">
      0.000000E+0000
      0.000000E+0000
      0.000000E+0000
      0.000000E+0000
      0.000000E+0000
      0.000000E+0000
      0.000000E+0000
      0.000000E+0000
      0.000000E+0000
      0.000000E+0000
      0.000000E+0000
      0.000000E+0000
      0.000000E+0000
      0.000000E+0000
      0.000000E+0000
      0.000000E+0000
      0.000000E+0000
      0.000000E+0000
      0.000000E+0000
      0.000000E+0000
      0.000000E+0000
      0.000000E+0000
      0.000000E+0000
      0.000000E+0000
      0.000000E+0000
      0.000000E+0000
      0.000000E+0000
      0.000000E+0000
      0.000000E+0000
      0.000000E+0000
      0.000000E+0000
      0.000000E+0000
      0.000000E+0000
      0.000000E+0000
      0.000000E+0000
      0.000000E+0000
      0.000000E+0000
      0.000000E+0000
      0.000000E+0000
      0.000000E+0000
      0.000000E+0000
      0.000000E+0000
      0.000000E+0000
      0.000000E+0000
      0.000000E+0000
      0.000000E+0000
      0.000000E+0000
      0.000000E+0000
      0.000000E+0000
      0.000000E+0000
      0.000000E+0000
      0.000000E+0000
      0.000000E+0000
      0.000000E+0000
      0.000000E+0000
      0.000000E+0000
      0.000000E+0000
      0.000000E+0000
      0.000000E+0000
      0.000000E+0000
      0.000000E+0000
      0.000000E+0000
      0.000000E+0000
      0.000000E+0000
      0.000000E+0000
      0.000000E+0000
      0.000000E+0000
      0.000000E+0000
      0.000000E+0000
      0.000000E+0000
      0.000000E+0000
      0.000000E+0000
      0.000000E+0000
      0.000000E+0000
      0.000000E+0000
      0.000000E+0000
      0.000000E+0000
      0.000000E+0000
      0.000000E+0000
      0.000000E+0000
      0.000000E+0000
      0.000000E+0000
      0.000000E+0000
      0.000000E+0000
      0.000000E+0000
      0.000000E+0000
      0.000000E+0000
      0.000000E+0000
      0.000000E+0000
      0.000000E+0000
      0.000000E+0000
      0.000000E+0000
      0.000000E+0000
      0.000000E+0000
      0.000000E+0000
      0.000000E+0000
      0.000000E+0000
      0.000000E+0000
      0.000000E+0000
      0.000000E+0000
</DataArray>
<DataArray Name="P" type="Float64" format="ascii" NumberOfComponents="1">
      0.597674E+0000
      0.594965E+0000
      0.592182E+0000
      0.589323E+0000
      0.586388E+0000
      0.583375E+0000
      0.580287E+0000
      0.577124E+0000
      0.573887E+0000
      0.570580E+0000
      0.597675E+0000
      0.594964E+0000
      0.592179E+0000
      0.589318E+0000
      0.586381E+0000
      0.583367E+0000
      0.580276E+0000
      0.577111E+0000
      0.573874E+0000
      0.570565E+0000
      0.597681E+0000
      0.594967E+0000
      0.592178E+0000
      0.589314E+0000
      0.586373E+0000
      0.583355E+0000
      0.580261E+0000
      0.577093E+0000
      0.573853E+0000
      0.570542E+0000
      0.597691E+0000
      0.594972E+0000
      0.592179E+0000
      0.589309E+0000
      0.586363E+0000
      0.583340E+0000
      0.580241E+0000
      0.577069E+0000
      0.573824E+0000
      0.570510E+0000
      0.597704E+0000
      0.594979E+0000
      0.592179E+0000
      0.589303E+0000
      0.586350E+0000
      0.583321E+0000
      0.580216E+0000
      0.577038E+0000
      0.573788E+0000
      0.570470E+0000
      0.597720E+0000
      0.594988E+0000
      0.592180E+0000
      0.589296E+0000
      0.586335E+0000
      0.583298E+0000
      0.580186E+0000
      0.577001E+0000
      0.573746E+0000
      0.570423E+0000
      0.597739E+0000
      0.594998E+0000
      0.592181E+0000
      0.589288E+0000
      0.586318E+0000
      0.583272E+0000
      0.580153E+0000
      0.576961E+0000
      0.573700E+0000
      0.570372E+0000
      0.597760E+0000
      0.595009E+0000
      0.592182E+0000
      0.589279E+0000
      0.586299E+0000
      0.583244E+0000
      0.580116E+0000
      0.576917E+0000
      0.573650E+0000
      0.570316E+0000
      0.597783E+0000
      0.595021E+0000
      0.592183E+0000
      0.589269E+0000
      0.586279E+0000
      0.583215E+0000
      0.580078E+0000
      0.576872E+0000
      0.573598E+0000
      0.570259E+0000
      0.597807E+0000
      0.595034E+0000
      0.592184E+0000
      0.589259E+0000
      0.586258E+0000
      0.583184E+0000
      0.580039E+0000
      0.576825E+0000
      0.573545E+0000
      0.570201E+0000
</DataArray>
<DataArray Name="RHO" type="Float64" format="ascii" NumberOfComponents="1">
      0.866823E+0000
      0.867924E+0000
      0.869037E+0000
      0.870162E+0000
      0.871299E+0000
      0.872446E+0000
      0.873606E+0000
      0.874777E+0000
      0.875955E+0000
      0.877154E+0000
      0.867156E+0000
      0.868289E+0000
      0.869438E+0000
      0.870604E+0000
      0.871786E+0000
      0.872985E+0000
      0.874200E+0000
      0.875431E+0000
      0.876676E+0000
      0.877960E+0000
      0.867827E+0000
      0.869031E+0000
      0.870262E+0000
      0.871518E+0000
      0.872801E+0000
      0.874110E+0000
      0.875445E+0000
      0.876803E+0000
      0.878209E+0000
      0.879664E+0000
      0.868843E+0000
      0.870167E+0000
      0.871534E+0000
      0.872943E+0000
      0.874394E+0000
      0.875884E+0000
      0.877415E+0000
      0.879013E+0000
      0.880674E+0000
      0.882397E+0000
      0.870228E+0000
      0.871737E+0000
      0.873312E+0000
      0.874951E+0000
      0.876651E+0000
      0.878416E+0000
      0.880273E+0000
      0.882218E+0000
      0.884242E+0000
      0.886338E+0000
      0.872036E+0000
      0.873813E+0000
      0.875686E+0000
      0.877651E+0000
      0.879710E+0000
      0.881898E+0000
      0.884205E+0000
      0.886617E+0000
      0.889121E+0000
      0.891699E+0000
      0.874351E+0000
      0.876502E+0000