<?xml version="1.0"?>
<VTKFile type="StructuredGrid" version="0.1" byte_order="LittleEndian">
<StructuredGrid WholeExtent="         120         130          80          90           0           1">
<Piece Extent="         120         130          80          90           0           1">
<Points>
<DataArray NumberOfComponents="3" type="Float64" format="ascii">
    0.582744E-01    0.305691E-01    0.000000E+00
    0.591104E-01    0.305691E-01    0.000000E+00
    0.599549E-01    0.305691E-01    0.000000E+00
    0.608077E-01    0.305691E-01    0.000000E+00
    0.616691E-01    0.305691E-01    0.000000E+00
    0.625391E-01    0.305691E-01    0.000000E+00
    0.634179E-01    0.305691E-01    0.000000E+00
    0.643054E-01    0.305691E-01    0.000000E+00
    0.652017E-01    0.305691E-01    0.000000E+00
    0.661071E-01    0.305691E-01    0.000000E+00
    0.670215E-01    0.305691E-01    0.000000E+00
    0.582744E-01    0.314969E-01    0.000000E+00
    0.591104E-01    0.314969E-01    0.000000E+00
    0.599549E-01    0.314969E-01    0.000000E+00
    0.608077E-01    0.314969E-01    0.000000E+00
    0.616691E-01    0.314969E-01    0.000000E+00
    0.625391E-01    0.314969E-01    0.000000E+00
    0.634179E-01    0.314969E-01    0.000000E+00
    0.643054E-01    0.314969E-01    0.000000E+00
    0.652017E-01    0.314969E-01    0.000000E+00
    0.661071E-01    0.314969E-01    0.000000E+00
    0.670215E-01    0.314969E-01    0.000000E+00
    0.582744E-01    0.324526E-01    0.000000E+00
    0.591104E-01    0.324526E-01    0.000000E+00
    0.599549E-01    0.324526E-01    0.000000E+00
    0.608077E-01    0.324526E-01    0.000000E+00
    0.616691E-01    0.324526E-01    0.000000E+00
    0.625391E-01    0.324526E-01    0.000000E+00
    0.634179E-01    0.324526E-01    0.000000E+00
    0.643054E-01    0.324526E-01    0.000000E+00
    0.652017E-01    0.324526E-01    0.000000E+00
    0.661071E-01    0.324526E-01    0.000000E+00
    0.670215E-01    0.324526E-01    0.000000E+00
    0.582744E-01    0.334369E-01    0.000000E+00
    0.591104E-01    0.334369E-01    0.000000E+00
    0.599549E-01    0.334369E-01    0.000000E+00
    0.608077E-01    0.334369E-01    0.000000E+00
    0.616691E-01    0.334369E-01    0.000000E+00
    0.625391E-01    0.334369E-01    0.000000E+00
    0.634179E-01    0.334369E-01    0.000000E+00
    0.643054E-01    0.334369E-01    0.000000E+00
    0.652017E-01    0.334369E-01    0.000000E+00
    0.661071E-01    0.334369E-01    0.000000E+00
    0.670215E-01    0.334369E-01    0.000000E+00
    0.582744E-01    0.344508E-01    0.000000E+00
    0.591104E-01    0.344508E-01    0.000000E+00
    0.599549E-01    0.344508E-01    0.000000E+00
    0.608077E-01    0.344508E-01    0.000000E+00
    0.616691E-01    0.344508E-01    0.000000E+00
    0.625391E-01    0.344508E-01    0.000000E+00
    0.634179E-01    0.344508E-01    0.000000E+00
    0.643054E-01    0.344508E-01    0.000000E+00
    0.652017E-01    0.344508E-01    0.000000E+00
    0.661071E-01    0.344508E-01    0.000000E+00
    0.670215E-01    0.344508E-01    0.000000E+00
    0.582744E-01    0.354950E-01    0.000000E+00
    0.591104E-01    0.354950E-01    0.000000E+00
    0.599549E-01    0.354950E-01    0.000000E+00
    0.608077E-01    0.354950E-01    0.000000E+00
    0.616691E-01    0.354950E-01    0.000000E+00
    0.625391E-01    0.354950E-01    0.000000E+00
    0.634179E-01    0.354950E-01    0.000000E+00
    0.643054E-01    0.354950E-01    0.000000E+00
    0.652017E-01    0.354950E-01    0.000000E+00
    0.661071E-01    0.354950E-01    0.000000E+00
    0.670215E-01    0.354950E-01    0.000000E+00
    0.582744E-01    0.365706E-01    0.000000E+00
    0.591104E-01    0.365706E-01    0.000000E+00
    0.599549E-01    0.365706E-01    0.000000E+00
    0.608077E-01    0.365706E-01    0.000000E+00
    0.616691E-01    0.365706E-01    0.000000E+00
    0.625391E-01    0.365706E-01    0.000000E+00
    0.634179E-01    0.365706E-01    0.000000E+00
    0.643054E-01    0.365706E-01    0.000000E+00
    0.652017E-01    0.365706E-01    0.000000E+00
    0.661071E-01    0.365706E-01    0.000000E+00
    0.670215E-01    0.365706E-01    0.000000E+00
    0.582744E-01    0.376785E-01    0.000000E+00
    0.591104E-01    0.376785E-01    0.000000E+00
    0.599549E-01    0.376785E-01    0.000000E+00
    0.608077E-01    0.376785E-01    0.000000E+00
    0.616691E-01    0.376785E-01    0.000000E+00
    0.625391E-01    0.376785E-01    0.000000E+00
    0.634179E-01    0.376785E-01    0.000000E+00
    0.643054E-01    0.376785E-01    0.000000E+00
    0.652017E-01    0.376785E-01    0.000000E+00
    0.661071E-01    0.376785E-01    0.000000E+00
    0.670215E-01    0.376785E-01    0.000000E+00
    0.582744E-01    0.388196E-01    0.000000E+00
    0.591104E-01    0.388196E-01    0.000000E+00
    0.599549E-01    0.388196E-01    0.000000E+00
    0.608077E-01    0.388196E-01    0.000000E+00
    0.616691E-01    0.388196E-01    0.000000E+00
    0.625391E-01    0.388196E-01    0.000000E+00
    0.634179E-01    0.388196E-01    0.000000E+00
    0.643054E-01    0.388196E-01    0.000000E+00
    0.652017E-01    0.388196E-01    0.000000E+00
    0.661071E-01    0.388196E-01    0.000000E+00
    0.670215E-01    0.388196E-01    0.000000E+00
    0.582744E-01    0.399949E-01    0.000000E+00
    0.591104E-01    0.399949E-01    0.000000E+00
    0.599549E-01    0.399949E-01    0.000000E+00
    0.608077E-01    0.399949E-01    0.000000E+00
    0.616691E-01    0.399949E-01    0.000000E+00
    0.625391E-01    0.399949E-01    0.000000E+00
    0.634179E-01    0.399949E-01    0.000000E+00
    0.643054E-01    0.399949E-01    0.000000E+00
    0.652017E-01    0.399949E-01    0.000000E+00
    0.661071E-01    0.399949E-01    0.000000E+00
    0.670215E-01    0.399949E-01    0.000000E+00
    0.582744E-01    0.412055E-01    0.000000E+00
    0.591104E-01    0.412055E-01    0.000000E+00
    0.599549E-01    0.412055E-01    0.000000E+00
    0.608077E-01    0.412055E-01    0.000000E+00
    0.616691E-01    0.412055E-01    0.000000E+00
    0.625391E-01    0.412055E-01    0.000000E+00
    0.634179E-01    0.412055E-01    0.000000E+00
    0.643054E-01    0.412055E-01    0.000000E+00
    0.652017E-01    0.412055E-01    0.000000E+00
    0.661071E-01    0.412055E-01    0.000000E+00
    0.670215E-01    0.412055E-01    0.000000E+00
    0.582744E-01    0.305691E-01    0.160000E-02
    0.591104E-01    0.305691E-01    0.160000E-02
    0.599549E-01    0.305691E-01    0.160000E-02
    0.608077E-01    0.305691E-01    0.160000E-02
    0.616691E-01    0.305691E-01    0.160000E-02
    0.625391E-01    0.305691E-01    0.160000E-02
    0.634179E-01    0.305691E-01    0.160000E-02
    0.643054E-01    0.305691E-01    0.160000E-02
    0.652017E-01    0.305691E-01    0.160000E-02
    0.661071E-01    0.305691E-01    0.160000E-02
    0.670215E-01    0.305691E-01    0.160000E-02
    0.582744E-01    0.314969E-01    0.160000E-02
    0.591104E-01    0.314969E-01    0.160000E-02
    0.599549E-01    0.314969E-01    0.160000E-02
    0.608077E-01    0.314969E-01    0.160000E-02
    0.616691E-01    0.314969E-01    0.160000E-02
    0.625391E-01    0.314969E-01    0.160000E-02
    0.634179E-01    0.314969E-01    0.160000E-02
    0.643054E-01    0.314969E-01    0.160000E-02
    0.652017E-01    0.314969E-01    0.160000E-02
    0.661071E-01    0.314969E-01    0.160000E-02
    0.670215E-01    0.314969E-01    0.160000E-02
    0.582744E-01    0.324526E-01    0.160000E-02
    0.591104E-01    0.324526E-01    0.160000E-02
    0.599549E-01    0.324526E-01    0.160000E-02
    0.608077E-01    0.324526E-01    0.160000E-02
    0.616691E-01    0.324526E-01    0.160000E-02
    0.625391E-01    0.324526E-01    0.160000E-02
    0.634179E-01    0.324526E-01    0.160000E-02
    0.643054E-01    0.324526E-01    0.160000E-02
    0.652017E-01    0.324526E-01    0.160000E-02
    0.661071E-01    0.324526E-01    0.160000E-02
    0.670215E-01    0.324526E-01    0.160000E-02
    0.582744E-01    0.334369E-01    0.160000E-02
    0.591104E-01    0.334369E-01    0.160000E-02
    0.599549E-01    0.334369E-01    0.160000E-02
    0.608077E-01    0.334369E-01    0.160000E-02
    0.616691E-01    0.334369E-01    0.160000E-02
    0.625391E-01    0.334369E-01    0.160000E-02
    0.634179E-01    0.334369E-01    0.160000E-02
    0.643054E-01    0.334369E-01    0.160000E-02
    0.652017E-01    0.334369E-01    0.160000E-02
    0.661071E-01    0.334369E-01    0.160000E-02
    0.670215E-01    0.334369E-01    0.160000E-02
    0.582744E-01    0.344508E-01    0.160000E-02
    0.591104E-01    0.344508E-01    0.160000E-02
    0.599549E-01    0.344508E-01    0.160000E-02
    0.608077E-01    0.344508E-01    0.160000E-02
    0.616691E-01    0.344508E-01    0.160000E-02
    0.625391E-01    0.344508E-01    0.160000E-02
    0.634179E-01    0.344508E-01    0.160000E-02
    0.643054E-01    0.344508E-01    0.160000E-02
    0.652017E-01    0.344508E-01    0.160000E-02
    0.661071E-01    0.344508E-01    0.160000E-02
    0.670215E-01    0.344508E-01    0.160000E-02
    0.582744E-01    0.354950E-01    0.160000E-02
    0.591104E-01    0.354950E-01    0.160000E-02
    0.599549E-01    0.354950E-01    0.160000E-02
    0.608077E-01    0.354950E-01    0.160000E-02
    0.616691E-01    0.354950E-01    0.160000E-02
    0.625391E-01    0.354950E-01    0.160000E-02
    0.634179E-01    0.354950E-01    0.160000E-02
    0.643054E-01    0.354950E-01    0.160000E-02
    0.652017E-01    0.354950E-01    0.160000E-02
    0.661071E-01    0.354950E-01    0.160000E-02
    0.670215E-01    0.354950E-01    0.160000E-02
    0.582744E-01    0.365706E-01    0.160000E-02
    0.591104E-01    0.365706E-01    0.160000E-02
    0.599549E-01    0.365706E-01    0.160000E-02
    0.608077E-01    0.365706E-01    0.160000E-02
    0.616691E-01    0.365706E-01    0.160000E-02
    0.625391E-01    0.365706E-01    0.160000E-02
    0.634179E-01    0.365706E-01    0.160000E-02
    0.643054E-01    0.365706E-01    0.160000E-02
    0.652017E-01    0.365706E-01    0.160000E-02
    0.661071E-01    0.365706E-01    0.160000E-02
    0.670215E-01    0.365706E-01    0.160000E-02
    0.582744E-01    0.376785E-01    0.160000E-02
    0.591104E-01    0.376785E-01    0.160000E-02
    0.599549E-01    0.376785E-01    0.160000E-02
    0.608077E-01    0.376785E-01    0.160000E-02
    0.616691E-01    0.376785E-01    0.160000E-02
    0.625391E-01    0.376785E-01    0.160000E-02
    0.634179E-01    0.376785E-01    0.160000E-02
    0.643054E-01    0.376785E-01    0.160000E-02
    0.652017E-01    0.376785E-01    0.160000E-02
    0.661071E-01    0.376785E-01    0.160000E-02
    0.670215E-01    0.376785E-01    0.160000E-02
    0.582744E-01    0.388196E-01    0.160000E-02
    0.591104E-01    0.388196E-01    0.160000E-02
    0.599549E-01    0.388196E-01    0.160000E-02
    0.608077E-01    0.388196E-01    0.160000E-02
    0.616691E-01    0.388196E-01    0.160000E-02
    0.625391E-01    0.388196E-01    0.160000E-02
    0.634179E-01    0.388196E-01    0.160000E-02
    0.643054E-01    0.388196E-01    0.160000E-02
    0.652017E-01    0.388196E-01    0.160000E-02
    0.661071E-01    0.388196E-01    0.160000E-02
    0.670215E-01    0.388196E-01    0.160000E-02
    0.582744E-01    0.399949E-01    0.160000E-02
    0.591104E-01    0.399949E-01    0.160000E-02
    0.599549E-01    0.399949E-01    0.160000E-02
    0.608077E-01    0.399949E-01    0.160000E-02
    0.616691E-01    0.399949E-01    0.160000E-02
    0.625391E-01    0.399949E-01    0.160000E-02
    0.634179E-01    0.399949E-01    0.160000E-02
    0.643054E-01    0.399949E-01    0.160000E-02
    0.652017E-01    0.399949E-01    0.160000E-02
    0.661071E-01    0.399949E-01    0.160000E-02
    0.670215E-01    0.399949E-01    0.160000E-02
    0.582744E-01    0.412055E-01    0.160000E-02
    0.591104E-01    0.412055E-01    0.160000E-02
    0.599549E-01    0.412055E-01    0.160000E-02
    0.608077E-01    0.412055E-01    0.160000E-02
    0.616691E-01    0.412055E-01    0.160000E-02
    0.625391E-01    0.412055E-01    0.160000E-02
    0.634179E-01    0.412055E-01    0.160000E-02
    0.643054E-01    0.412055E-01    0.160000E-02
    0.652017E-01    0.412055E-01    0.160000E-02
    0.661071E-01    0.412055E-01    0.160000E-02
    0.670215E-01    0.412055E-01    0.160000E-02
</DataArray>
</Points>
<PointData>
<DataArray Name="Velocity" type="Float64" format="ascii" NumberOfComponents="3">
    0.883902E-01   -0.471685E-05    0.000000E+00
    0.883915E-01   -0.396594E-05    0.000000E+00
    0.883927E-01   -0.320273E-05    0.000000E+00
    0.883938E-01   -0.253238E-05    0.000000E+00
    0.883947E-01   -0.194525E-05    0.000000E+00
    0.883956E-01   -0.143259E-05    0.000000E+00
    0.883963E-01   -0.986486E-06    0.000000E+00
    0.883970E-01   -0.599792E-06    0.000000E+00
    0.883976E-01   -0.266069E-06    0.000000E+00
    0.883981E-01    0.205497E-07    0.000000E+00
    0.883986E-01    0.265214E-06    0.000000E+00
    0.883909E-01   -0.597969E-05    0.000000E+00
    0.883921E-01   -0.511947E-05    0.000000E+00
    0.883932E-01   -0.423986E-05    0.000000E+00
    0.883942E-01   -0.346210E-05    0.000000E+00
    0.883951E-01   -0.277617E-05    0.000000E+00
    0.883959E-01   -0.217292E-05    0.000000E+00
    0.883966E-01   -0.164402E-05    0.000000E+00
    0.883972E-01   -0.118188E-05    0.000000E+00
    0.883977E-01   -0.779623E-06    0.000000E+00
    0.883982E-01   -0.430919E-06    0.000000E+00
    0.883986E-01   -0.130200E-06    0.000000E+00
    0.883904E-01   -0.720735E-05    0.000000E+00
    0.883915E-01   -0.624582E-05    0.000000E+00
    0.883926E-01   -0.525782E-05    0.000000E+00
    0.883936E-01   -0.437952E-05    0.000000E+00
    0.883944E-01   -0.360065E-05    0.000000E+00
    0.883952E-01   -0.291178E-05    0.000000E+00
    0.883959E-01   -0.230425E-05    0.000000E+00
    0.883966E-01   -0.177013E-05    0.000000E+00
    0.883971E-01   -0.130217E-05    0.000000E+00
    0.883976E-01   -0.893702E-06    0.000000E+00
    0.883980E-01   -0.538766E-06    0.000000E+00
    0.883901E-01   -0.838069E-05    0.000000E+00
    0.883912E-01   -0.732900E-05    0.000000E+00
    0.883922E-01   -0.624383E-05    0.000000E+00
    0.883931E-01   -0.527470E-05    0.000000E+00
    0.883940E-01   -0.441125E-05    0.000000E+00
    0.883947E-01   -0.364389E-05    0.000000E+00
    0.883954E-01   -0.296378E-05    0.000000E+00
    0.883960E-01   -0.236275E-05    0.000000E+00
    0.883966E-01   -0.183333E-05    0.000000E+00
    0.883971E-01   -0.136857E-05    0.000000E+00
    0.883975E-01   -0.962216E-06    0.000000E+00
    0.883905E-01   -0.944622E-05    0.000000E+00
    0.883915E-01   -0.831899E-05    0.000000E+00
    0.883924E-01   -0.715160E-05    0.000000E+00
    0.883932E-01   -0.610488E-05    0.000000E+00
    0.883940E-01   -0.516851E-05    0.000000E+00
    0.883947E-01   -0.433291E-05    0.000000E+00
    0.883953E-01   -0.358917E-05    0.000000E+00
    0.883959E-01   -0.292904E-05    0.000000E+00
    0.883964E-01   -0.234491E-05    0.000000E+00
    0.883969E-01   -0.182966E-05    0.000000E+00
    0.883973E-01   -0.137688E-05    0.000000E+00
    0.883916E-01   -0.103455E-04    0.000000E+00
    0.883924E-01   -0.916038E-05    0.000000E+00
    0.883932E-01   -0.792909E-05    0.000000E+00
    0.883939E-01   -0.682124E-05    0.000000E+00
    0.883945E-01   -0.582673E-05    0.000000E+00
    0.883951E-01   -0.493611E-05    0.000000E+00
    0.883957E-01   -0.414055E-05    0.000000E+00
    0.883962E-01   -0.343182E-05    0.000000E+00
    0.883966E-01   -0.280230E-05    0.000000E+00
    0.883970E-01   -0.224482E-05    0.000000E+00
    0.883974E-01   -0.175290E-05    0.000000E+00
    0.883932E-01   -0.110285E-04    0.000000E+00
    0.883939E-01   -0.980524E-05    0.000000E+00
    0.883945E-01   -0.853088E-05    0.000000E+00
    0.883950E-01   -0.738088E-05    0.000000E+00
    0.883955E-01   -0.634546E-05    0.000000E+00
    0.883960E-01   -0.541545E-05    0.000000E+00
    0.883964E-01   -0.458220E-05    0.000000E+00
    0.883968E-01   -0.383763E-05    0.000000E+00
    0.883972E-01   -0.317420E-05    0.000000E+00
    0.883975E-01   -0.258483E-05    0.000000E+00
    0.883978E-01   -0.206302E-05    0.000000E+00
    0.883953E-01   -0.114547E-04    0.000000E+00
    0.883957E-01   -0.102147E-04    0.000000E+00
    0.883962E-01   -0.891993E-05    0.000000E+00
    0.883966E-01   -0.774856E-05    0.000000E+00
    0.883969E-01   -0.669129E-05    0.000000E+00
    0.883972E-01   -0.573930E-05    0.000000E+00
    0.883975E-01   -0.488427E-05    0.000000E+00
    0.883978E-01   -0.411836E-05    0.000000E+00
    0.883981E-01   -0.343422E-05    0.000000E+00
    0.883983E-01   -0.282492E-05    0.000000E+00
    0.883985E-01   -0.228409E-05    0.000000E+00
    0.883978E-01   -0.115886E-04    0.000000E+00
    0.883981E-01   -0.103543E-04    0.000000E+00
    0.883983E-01   -0.906298E-05    0.000000E+00
    0.883985E-01   -0.789238E-05    0.000000E+00
    0.883986E-01   -0.683373E-05    0.000000E+00
    0.883988E-01   -0.587865E-05    0.000000E+00
    0.883990E-01   -0.501920E-05    0.000000E+00
    0.883991E-01   -0.424790E-05    0.000000E+00
    0.883992E-01   -0.355767E-05    0.000000E+00
    0.883993E-01   -0.294184E-05    0.000000E+00
    0.883994E-01   -0.239421E-05    0.000000E+00
    0.884009E-01   -0.113913E-04    0.000000E+00
    0.884009E-01   -0.101862E-04    0.000000E+00
    0.884008E-01   -0.892355E-05    0.000000E+00
    0.884008E-01   -0.777726E-05    0.000000E+00
    0.884008E-01   -0.673912E-05    0.000000E+00
    0.884008E-01   -0.580128E-05    0.000000E+00
    0.884007E-01   -0.495629E-05    0.000000E+00
    0.884007E-01   -0.419705E-05    0.000000E+00
    0.884007E-01   -0.351687E-05    0.000000E+00
    0.884007E-01   -0.290937E-05    0.000000E+00
    0.884006E-01   -0.236864E-05    0.000000E+00
    0.884043E-01   -0.108152E-04    0.000000E+00
    0.884040E-01   -0.966434E-05    0.000000E+00
    0.884037E-01   -0.845755E-05    0.000000E+00
    0.884035E-01   -0.736106E-05    0.000000E+00
    0.884032E-01   -0.636733E-05    0.000000E+00
    0.884030E-01   -0.546908E-05    0.000000E+00
    0.884028E-01   -0.465939E-05    0.000000E+00
    0.884026E-01   -0.393164E-05    0.000000E+00
    0.884024E-01   -0.327955E-05    0.000000E+00
    0.884022E-01   -0.269714E-05    0.000000E+00
    0.884020E-01   -0.217883E-05    0.000000E+00
    0.883899E-01   -0.483250E-05    0.118362E-20
    0.883913E-01   -0.396594E-05    0.971376E-21
    0.883925E-01   -0.320273E-05    0.784443E-21
    0.883936E-01   -0.253238E-05    0.620255E-21
    0.883945E-01   -0.194525E-05    0.476448E-21
    0.883954E-01   -0.143259E-05    0.350882E-21
    0.883962E-01   -0.986486E-06    0.241619E-21
    0.883969E-01   -0.599792E-06    0.146907E-21
    0.883975E-01   -0.266069E-06    0.651682E-22
    0.883980E-01    0.205497E-07   -0.503321E-23
    0.883985E-01    0.265214E-06   -0.649587E-22
    0.883909E-01   -0.611172E-05    0.149694E-20
    0.883921E-01   -0.511947E-05    0.125391E-20
    0.883932E-01   -0.423986E-05    0.103847E-20
    0.883942E-01   -0.346210E-05    0.847970E-21
    0.883951E-01   -0.277617E-05    0.679965E-21
    0.883959E-01   -0.217292E-05    0.532212E-21
    0.883966E-01   -0.164402E-05    0.402670E-21
    0.883972E-01   -0.118188E-05    0.289478E-21
    0.883977E-01   -0.779623E-06    0.190953E-21
    0.883982E-01   -0.430919E-06    0.105545E-21
    0.883986E-01   -0.130200E-06    0.318899E-22
    0.883904E-01   -0.735453E-05    0.180134E-20
    0.883915E-01   -0.624582E-05    0.152978E-20
    0.883926E-01   -0.525782E-05    0.128779E-20
    0.883936E-01   -0.437952E-05    0.107267E-20
    0.883944E-01   -0.360065E-05    0.881905E-21
    0.883952E-01   -0.291178E-05    0.713180E-21
    0.883959E-01   -0.230425E-05    0.564379E-21
    0.883966E-01   -0.177013E-05    0.433556E-21
    0.883971E-01   -0.130217E-05    0.318940E-21
    0.883976E-01   -0.893702E-06    0.218894E-21
    0.883980E-01   -0.538766E-06    0.131959E-21
    0.883901E-01   -0.854128E-05    0.209201E-20
    0.883912E-01   -0.732900E-05    0.179509E-20
    0.883922E-01   -0.624383E-05    0.152930E-20
    0.883931E-01   -0.527470E-05    0.129193E-20
    0.883940E-01   -0.441125E-05    0.108044E-20
    0.883947E-01   -0.364389E-05    0.892495E-21
    0.883954E-01   -0.296378E-05    0.725916E-21
    0.883960E-01   -0.236275E-05    0.578708E-21
    0.883966E-01   -0.183333E-05    0.449037E-21
    0.883971E-01   -0.136857E-05    0.335202E-21
    0.883975E-01   -0.962216E-06    0.235675E-21
    0.883905E-01   -0.961797E-05    0.235572E-20
    0.883915E-01   -0.831899E-05    0.203756E-20
    0.883924E-01   -0.715160E-05    0.175164E-20
    0.883932E-01   -0.610488E-05    0.149526E-20
    0.883940E-01   -0.516851E-05    0.126592E-20
    0.883947E-01   -0.433291E-05    0.106126E-20
    0.883953E-01   -0.358917E-05    0.879093E-21
    0.883959E-01   -0.292904E-05    0.717409E-21
    0.883964E-01   -0.234491E-05    0.574336E-21
    0.883969E-01   -0.182966E-05    0.448137E-21
    0.883973E-01   -0.137688E-05    0.337238E-21
    0.883916E-01   -0.105258E-04    0.257807E-20
    0.883924E-01   -0.916038E-05    0.224365E-20
    0.883932E-01   -0.792909E-05    0.194207E-20
    0.883939E-01   -0.682124E-05    0.167072E-20
    0.883945E-01   -0.582673E-05    0.142714E-20
    0.883951E-01   -0.493611E-05    0.120900E-20
    0.883957E-01   -0.414055E-05    0.101414E-20
    0.883962E-01   -0.343182E-05    0.840554E-21
    0.883966E-01   -0.280230E-05    0.686364E-21
    0.883970E-01   -0.224482E-05    0.549822E-21
    0.883974E-01   -0.175290E-05    0.429336E-21
    0.883932E-01   -0.112142E-04    0.274670E-20
    0.883939E-01   -0.980524E-05    0.240159E-20
    0.883945E-01   -0.853088E-05    0.208946E-20
    0.883950E-01   -0.738088E-05    0.180779E-20
    0.883955E-01   -0.634546E-05    0.155419E-20
    0.883960E-01   -0.541545E-05    0.132640E-20
    0.883964E-01   -0.458220E-05    0.112231E-20
    0.883968E-01   -0.383763E-05    0.939948E-21
    0.883972E-01   -0.317420E-05    0.777455E-21
    0.883975E-01   -0.258483E-05    0.633100E-21
    0.883978E-01   -0.206302E-05    0.505295E-21
    0.883953E-01   -0.116428E-04    0.285165E-20
    0.883957E-01   -0.102147E-04    0.250189E-20
    0.883962E-01   -0.891993E-05    0.218475E-20
    0.883966E-01   -0.774856E-05    0.189785E-20
    0.883969E-01   -0.669129E-05    0.163889E-20
    0.883972E-01   -0.573930E-05    0.140572E-20
    0.883975E-01   -0.488427E-05    0.119630E-20
    0.883978E-01   -0.411836E-05    0.100871E-20
    0.883981E-01   -0.343422E-05    0.841141E-21
    0.883983E-01   -0.282492E-05    0.691906E-21
    0.883985E-01   -0.228409E-05    0.559440E-21
    0.883978E-01   -0.117755E-04    0.288418E-20
    0.883981E-01   -0.103543E-04    0.253607E-20
    0.883983E-01   -0.906298E-05    0.221979E-20
    0.883985E-01   -0.789238E-05    0.193308E-20
    0.883986E-01   -0.683373E-05    0.167378E-20
    0.883988E-01   -0.587865E-05    0.143985E-20
    0.883990E-01   -0.501920E-05    0.122935E-20
    0.883991E-01   -0.424790E-05    0.104043E-20
    0.883992E-01   -0.355767E-05    0.871379E-21
    0.883993E-01   -0.294184E-05    0.720542E-21
    0.883994E-01   -0.239421E-05    0.586412E-21
    0.884009E-01   -0.115737E-04    0.283473E-20
    0.884009E-01   -0.101862E-04    0.249489E-20
    0.884008E-01   -0.892355E-05    0.218564E-20
    0.884008E-01   -0.777726E-05    0.190488E-20
    0.884008E-01   -0.673912E-05    0.165061E-20
    0.884008E-01   -0.580128E-05    0.142090E-20
    0.884007E-01   -0.495629E-05    0.121394E-20
    0.884007E-01   -0.419705E-05    0.102798E-20
    0.884007E-01   -0.351687E-05    0.861385E-21
    0.884007E-01   -0.290937E-05    0.712590E-21
    0.884006E-01   -0.236864E-05    0.580149E-21
    0.884043E-01   -0.109892E-04    0.269159E-20
    0.884040E-01   -0.966434E-05    0.236708E-20
    0.884037E-01   -0.845755E-05    0.207150E-20
    0.884035E-01   -0.736106E-05    0.180294E-20
    0.884032E-01   -0.636733E-05    0.155955E-20
    0.884030E-01   -0.546908E-05    0.133954E-20
    0.884028E-01   -0.465939E-05    0.114122E-20
    0.884026E-01   -0.393164E-05    0.962974E-21
    0.884024E-01   -0.327955E-05    0.803259E-21
    0.884022E-01   -0.269714E-05    0.660609E-21
    0.884020E-01   -0.217883E-05    0.533658E-21
</DataArray>
</PointData>
<CellData>
<DataArray Name="DP" type="Float64" format="ascii" NumberOfComponents="1">
      0.000000E+0000
      0.000000E+0000
      0.000000E+0000
      0.000000E+0000
      0.000000E+0000
      0.000000E+0000
      0.000000E+0000
      0.000000E+0000
      0.000000E+0000
      0.000000E+0000
      0.000000E+0000
      0.000000E+0000
      0.000000E+0000
      0.000000E+0000
      0.000000E+0000
      0.000000E+0000
      0.000000E+0000
      0.000000E+0000
      0.000000E+0000
      0.000000E+0000
      0.000000E+0000
      0.000000E+0000
      0.000000E+0000
      0.000000E+0000
      0.000000E+0000
      0.000000E+0000
      0.000000E+0000
      0.000000E+0000
      0.000000E+0000
      0.000000E+0000
      0.000000E+0000
      0.000000E+0000
      0.000000E+0000
      0.000000E+0000
      0.000000E+0000
      0.000000E+0000
      0.000000E+0000
      0.000000E+0000
      0.000000E+0000
      0.000000E+0000
      0.000000E+0000
      0.000000E+0000
      0.000000E+0000
      0.000000E+0000
      0.000000E+0000
      0.000000E+0000
      0.000000E+0000
      0.000000E+0000
      0.000000E+0000
      0.000000E+0000
      0.000000E+0000
      0.000000E+0000
      0.000000E+0000
      0.000000E+0000
      0.000000E+0000
      0.000000E+0000
      0.000000E+0000
      0.000000E+0000
      0.000000E+0000
      0.000000E+0000
      0.000000E+0000
      0.000000E+0000
      0.000000E+0000
      0.000000E+0000
      0.000000E+0000
      0.000000E+0000
      0.000000E+0000
      0.000000E+0000
      0.000000E+0000
      0.000000E+0000
      0.000000E+0000
      0.000000E+0000
      0.000000E+0000
      0.000000E+0000
      0.000000E+0000
      0.000000E+0000
      0.000000E+0000
      0.000000E+0000
      0.000000E+0000
      0.000000E+0000
      0.000000E+0000
      0.000000E+0000
      0.000000E+0000
      0.000000E+0000
      0.000000E+0000
      0.000000E+0000
      0.000000E+0000
      0.000000E+0000
      0.000000E+0000
      0.000000E+0000
      0.000000E+0000
      0.000000E+0000
      0.000000E+0000
      0.000000E+0000
      0.000000E+0000
      0.000000E+0000
      0.000000E+0000
      0.000000E+0000
      0.000000E+0000
      0.000000E+0000
</DataArray>
<DataArray Name="P" type="Float64" format="ascii" NumberOfComponents="1">
     -0.415400E-0001
     -0.511988E-0001
     -0.609543E-0001
     -0.708074E-0001
     -0.807591E-0001
     -0.908105E-0001
     -0.100962E+0000
     -0.111216E+0000
     -0.121572E+0000
     -0.132032E+0000
     -0.415430E-0001
     -0.512017E-0001
     -0.609572E-0001
     -0.708102E-0001
     -0.807619E-0001
     -0.908132E-0001
     -0.100965E+0000
     -0.111218E+0000
     -0.121575E+0000
     -0.132034E+0000
     -0.415460E-0001
     -0.512046E-0001
     -0.609600E-0001
     -0.708130E-0001
     -0.807646E-0001
     -0.908158E-0001
     -0.100968E+0000
     -0.111221E+0000
     -0.121577E+0000
     -0.132037E+0000
     -0.415489E-0001
     -0.512075E-0001
     -0.609628E-0001
     -0.708157E-0001
     -0.807672E-0001
     -0.908184E-0001
     -0.100970E+0000
     -0.111223E+0000
     -0.121579E+0000
     -0.132039E+0000
     -0.415517E-0001
     -0.512102E-0001
     -0.609655E-0001
     -0.708183E-0001
     -0.807698E-0001
     -0.908209E-0001
     -0.100973E+0000
     -0.111226E+0000
     -0.121582E+0000
     -0.132041E+0000
     -0.415544E-0001
     -0.512129E-0001
     -0.609681E-0001
     -0.708209E-0001
     -0.807723E-0001
     -0.908234E-0001
     -0.100975E+0000
     -0.111228E+0000
     -0.121584E+0000
     -0.132044E+0000
     -0.415570E-0001
     -0.512155E-0001
     -0.609706E-0001
     -0.708234E-0001
     -0.807748E-0001
     -0.908258E-0001
     -0.100977E+0000
     -0.111231E+0000
     -0.121586E+0000
     -0.132046E+0000
     -0.415596E-0001
     -0.512180E-0001
     -0.609730E-0001
     -0.708258E-0001
     -0.807771E-0001
     -0.908281E-0001
     -0.100980E+0000
     -0.111233E+0000
     -0.121589E+0000
     -0.132048E+0000
     -0.415620E-0001
     -0.512203E-0001
     -0.609754E-0001
     -0.708280E-0001
     -0.807793E-0001
     -0.908302E-0001
     -0.100982E+0000
     -0.111235E+0000
     -0.121591E+0000
     -0.132050E+0000
     -0.415642E-0001
     -0.512225E-0001
     -0.609775E-0001
     -0.708302E-0001
     -0.807815E-0001
     -0.908323E-0001
     -0.100984E+0000
     -0.111237E+0000
     -0.121593E+0000
     -0.132052E+0000
</DataArray>
<DataArray Name="RHO" type="Float64" format="ascii" NumberOfComponents="1">
      0.117197E+0001
      0.117197E+0001
      0.117197E+0001
      0.117197E+0001
      0.117197E+0001
      0.117197E+0001
      0.117197E+0001
      0.117197E+0001
      0.117197E+0001
      0.117197E+0001
      0.117197E+0001
      0.117197E+0001
      0.117197E+0001
      0.117197E+0001
      0.117197E+0001
      0.117197E+0001
      0.117197E+0001
      0.117197E+0001
      0.117197E+0001
      0.117197E+0001
      0.117197E+0001
      0.117197E+0001
      0.117197E+0001
      0.117197E+0001
      0.117197E+0001
      0.117197E+0001
      0.117197E+0001
      0.117197E+0001
      0.117197E+0001
      0.117197E+0001
      0.117197E+0001
      0.117197E+0001
      0.117197E+0001
      0.117197E+0001
      0.117197E+0001
      0.117197E+0001
      0.117197E+0001
      0.117197E+0001
      0.117197E+0001
      0.117197E+0001
      0.117197E+0001
      0.117197E+0001
      0.117197E+0001
      0.117197E+0001
      0.117197E+0001
      0.117197E+0001
      0.117197E+0001
      0.117197E+0001
      0.117197E+0001
      0.117197E+0001
      0.117197E+0001
      0.117197E+0001
      0.117197E+0001
      0.117197E+0001
      0.117197E+0001
      0.117197E+0001
      0.117197E+0001
      0.117197E+0001
      0.117197E+0001
      0.117197E+0001
      0.117197E+0001
      0.117197E+0001