<?xml version="1.0"?>
<VTKFile type="StructuredGrid" version="0.1" byte_order="LittleEndian">
<StructuredGrid WholeExtent="          70          80           0          10           0           1">
<Piece Extent="          70          80           0          10           0           1">
<Points>
<DataArray NumberOfComponents="3" type="Float64" format="ascii">
    0.255037E-01    0.000000E+00    0.000000E+00
    0.260121E-01    0.000000E+00    0.000000E+00
    0.265256E-01    0.000000E+00    0.000000E+00
    0.270441E-01    0.000000E+00    0.000000E+00
    0.275679E-01    0.000000E+00    0.000000E+00
    0.280969E-01    0.000000E+00    0.000000E+00
    0.286312E-01    0.000000E+00    0.000000E+00
    0.291708E-01    0.000000E+00    0.000000E+00
    0.297159E-01    0.000000E+00    0.000000E+00
    0.302663E-01    0.000000E+00    0.000000E+00
    0.308223E-01    0.000000E+00    0.000000E+00
    0.255037E-01    0.288897E-03    0.000000E+00
    0.260121E-01    0.288897E-03    0.000000E+00
    0.265256E-01    0.288897E-03    0.000000E+00
    0.270441E-01    0.288897E-03    0.000000E+00
    0.275679E-01    0.288897E-03    0.000000E+00
    0.280969E-01    0.288897E-03    0.000000E+00
    0.286312E-01    0.288897E-03    0.000000E+00
    0.291708E-01    0.288897E-03    0.000000E+00
    0.297159E-01    0.288897E-03    0.000000E+00
    0.302663E-01    0.288897E-03    0.000000E+00
    0.308223E-01    0.288897E-03    0.000000E+00
    0.255037E-01    0.572017E-03    0.000000E+00
    0.260121E-01    0.572017E-03    0.000000E+00
    0.265256E-01    0.572017E-03    0.000000E+00
    0.270441E-01    0.572017E-03    0.000000E+00
    0.275679E-01    0.572017E-03    0.000000E+00
    0.280969E-01    0.572017E-03    0.000000E+00
    0.286312E-01    0.572017E-03    0.000000E+00
    0.291708E-01    0.572017E-03    0.000000E+00
    0.297159E-01    0.572017E-03    0.000000E+00
    0.302663E-01    0.572017E-03    0.000000E+00
    0.308223E-01    0.572017E-03    0.000000E+00
    0.255037E-01    0.849473E-03    0.000000E+00
    0.260121E-01    0.849473E-03    0.000000E+00
    0.265256E-01    0.849473E-03    0.000000E+00
    0.270441E-01    0.849473E-03    0.000000E+00
    0.275679E-01    0.849473E-03    0.000000E+00
    0.280969E-01    0.849473E-03    0.000000E+00
    0.286312E-01    0.849473E-03    0.000000E+00
    0.291708E-01    0.849473E-03    0.000000E+00
    0.297159E-01    0.849473E-03    0.000000E+00
    0.302663E-01    0.849473E-03    0.000000E+00
    0.308223E-01    0.849473E-03    0.000000E+00
    0.255037E-01    0.112138E-02    0.000000E+00
    0.260121E-01    0.112138E-02    0.000000E+00
    0.265256E-01    0.112138E-02    0.000000E+00
    0.270441E-01    0.112138E-02    0.000000E+00
    0.275679E-01    0.112138E-02    0.000000E+00
    0.280969E-01    0.112138E-02    0.000000E+00
    0.286312E-01    0.112138E-02    0.000000E+00
    0.291708E-01    0.112138E-02    0.000000E+00
    0.297159E-01    0.112138E-02    0.000000E+00
    0.302663E-01    0.112138E-02    0.000000E+00
    0.308223E-01    0.112138E-02    0.000000E+00
    0.255037E-01    0.138785E-02    0.000000E+00
    0.260121E-01    0.138785E-02    0.000000E+00
    0.265256E-01    0.138785E-02    0.000000E+00
    0.270441E-01    0.138785E-02    0.000000E+00
    0.275679E-01    0.138785E-02    0.000000E+00
    0.280969E-01    0.138785E-02    0.000000E+00
    0.286312E-01    0.138785E-02    0.000000E+00
    0.291708E-01    0.138785E-02    0.000000E+00
    0.297159E-01    0.138785E-02    0.000000E+00
    0.302663E-01    0.138785E-02    0.000000E+00
    0.308223E-01    0.138785E-02    0.000000E+00
    0.255037E-01    0.164899E-02    0.000000E+00
    0.260121E-01    0.164899E-02    0.000000E+00
    0.265256E-01    0.164899E-02    0.000000E+00
    0.270441E-01    0.164899E-02    0.000000E+00
    0.275679E-01    0.164899E-02    0.000000E+00
    0.280969E-01    0.164899E-02    0.000000E+00
    0.286312E-01    0.164899E-02    0.000000E+00
    0.291708E-01    0.164899E-02    0.000000E+00
    0.297159E-01    0.164899E-02    0.000000E+00
    0.302663E-01    0.164899E-02    0.000000E+00
    0.308223E-01    0.164899E-02    0.000000E+00
    0.255037E-01    0.190491E-02    0.000000E+00
    0.260121E-01    0.190491E-02    0.000000E+00
    0.265256E-01    0.190491E-02    0.000000E+00
    0.270441E-01    0.190491E-02    0.000000E+00
    0.275679E-01    0.190491E-02    0.000000E+00
    0.280969E-01    0.190491E-02    0.000000E+00
    0.286312E-01    0.190491E-02    0.000000E+00
    0.291708E-01    0.190491E-02    0.000000E+00
    0.297159E-01    0.190491E-02    0.000000E+00
    0.302663E-01    0.190491E-02    0.000000E+00
    0.308223E-01    0.190491E-02    0.000000E+00
    0.255037E-01    0.215571E-02    0.000000E+00
    0.260121E-01    0.215571E-02    0.000000E+00
    0.265256E-01    0.215571E-02    0.000000E+00
    0.270441E-01    0.215571E-02    0.000000E+00
    0.275679E-01    0.215571E-02    0.000000E+00
    0.280969E-01    0.215571E-02    0.000000E+00
    0.286312E-01    0.215571E-02    0.000000E+00
    0.291708E-01    0.215571E-02    0.000000E+00
    0.297159E-01    0.215571E-02    0.000000E+00
    0.302663E-01    0.215571E-02    0.000000E+00
    0.308223E-01    0.215571E-02    0.000000E+00
    0.255037E-01    0.240149E-02    0.000000E+00
    0.260121E-01    0.240149E-02    0.000000E+00
    0.265256E-01    0.240149E-02    0.000000E+00
    0.270441E-01    0.240149E-02    0.000000E+00
    0.275679E-01    0.240149E-02    0.000000E+00
    0.280969E-01    0.240149E-02    0.000000E+00
    0.286312E-01    0.240149E-02    0.000000E+00
    0.291708E-01    0.240149E-02    0.000000E+00
    0.297159E-01    0.240149E-02    0.000000E+00
    0.302663E-01    0.240149E-02    0.000000E+00
    0.308223E-01    0.240149E-02    0.000000E+00
    0.255037E-01    0.264236E-02    0.000000E+00
    0.260121E-01    0.264236E-02    0.000000E+00
    0.265256E-01    0.264236E-02    0.000000E+00
    0.270441E-01    0.264236E-02    0.000000E+00
    0.275679E-01    0.264236E-02    0.000000E+00
    0.280969E-01    0.264236E-02    0.000000E+00
    0.286312E-01    0.264236E-02    0.000000E+00
    0.291708E-01    0.264236E-02    0.000000E+00
    0.297159E-01    0.264236E-02    0.000000E+00
    0.302663E-01    0.264236E-02    0.000000E+00
    0.308223E-01    0.264236E-02    0.000000E+00
    0.255037E-01    0.000000E+00    0.160000E-02
    0.260121E-01    0.000000E+00    0.160000E-02
    0.265256E-01    0.000000E+00    0.160000E-02
    0.270441E-01    0.000000E+00    0.160000E-02
    0.275679E-01    0.000000E+00    0.160000E-02
    0.280969E-01    0.000000E+00    0.160000E-02
    0.286312E-01    0.000000E+00    0.160000E-02
    0.291708E-01    0.000000E+00    0.160000E-02
    0.297159E-01    0.000000E+00    0.160000E-02
    0.302663E-01    0.000000E+00    0.160000E-02
    0.308223E-01    0.000000E+00    0.160000E-02
    0.255037E-01    0.288897E-03    0.160000E-02
    0.260121E-01    0.288897E-03    0.160000E-02
    0.265256E-01    0.288897E-03    0.160000E-02
    0.270441E-01    0.288897E-03    0.160000E-02
    0.275679E-01    0.288897E-03    0.160000E-02
    0.280969E-01    0.288897E-03    0.160000E-02
    0.286312E-01    0.288897E-03    0.160000E-02
    0.291708E-01    0.288897E-03    0.160000E-02
    0.297159E-01    0.288897E-03    0.160000E-02
    0.302663E-01    0.288897E-03    0.160000E-02
    0.308223E-01    0.288897E-03    0.160000E-02
    0.255037E-01    0.572017E-03    0.160000E-02
    0.260121E-01    0.572017E-03    0.160000E-02
    0.265256E-01    0.572017E-03    0.160000E-02
    0.270441E-01    0.572017E-03    0.160000E-02
    0.275679E-01    0.572017E-03    0.160000E-02
    0.280969E-01    0.572017E-03    0.160000E-02
    0.286312E-01    0.572017E-03    0.160000E-02
    0.291708E-01    0.572017E-03    0.160000E-02
    0.297159E-01    0.572017E-03    0.160000E-02
    0.302663E-01    0.572017E-03    0.160000E-02
    0.308223E-01    0.572017E-03    0.160000E-02
    0.255037E-01    0.849473E-03    0.160000E-02
    0.260121E-01    0.849473E-03    0.160000E-02
    0.265256E-01    0.849473E-03    0.160000E-02
    0.270441E-01    0.849473E-03    0.160000E-02
    0.275679E-01    0.849473E-03    0.160000E-02
    0.280969E-01    0.849473E-03    0.160000E-02
    0.286312E-01    0.849473E-03    0.160000E-02
    0.291708E-01    0.849473E-03    0.160000E-02
    0.297159E-01    0.849473E-03    0.160000E-02
    0.302663E-01    0.849473E-03    0.160000E-02
    0.308223E-01    0.849473E-03    0.160000E-02
    0.255037E-01    0.112138E-02    0.160000E-02
    0.260121E-01    0.112138E-02    0.160000E-02
    0.265256E-01    0.112138E-02    0.160000E-02
    0.270441E-01    0.112138E-02    0.160000E-02
    0.275679E-01    0.112138E-02    0.160000E-02
    0.280969E-01    0.112138E-02    0.160000E-02
    0.286312E-01    0.112138E-02    0.160000E-02
    0.291708E-01    0.112138E-02    0.160000E-02
    0.297159E-01    0.112138E-02    0.160000E-02
    0.302663E-01    0.112138E-02    0.160000E-02
    0.308223E-01    0.112138E-02    0.160000E-02
    0.255037E-01    0.138785E-02    0.160000E-02
    0.260121E-01    0.138785E-02    0.160000E-02
    0.265256E-01    0.138785E-02    0.160000E-02
    0.270441E-01    0.138785E-02    0.160000E-02
    0.275679E-01    0.138785E-02    0.160000E-02
    0.280969E-01    0.138785E-02    0.160000E-02
    0.286312E-01    0.138785E-02    0.160000E-02
    0.291708E-01    0.138785E-02    0.160000E-02
    0.297159E-01    0.138785E-02    0.160000E-02
    0.302663E-01    0.138785E-02    0.160000E-02
    0.308223E-01    0.138785E-02    0.160000E-02
    0.255037E-01    0.164899E-02    0.160000E-02
    0.260121E-01    0.164899E-02    0.160000E-02
    0.265256E-01    0.164899E-02    0.160000E-02
    0.270441E-01    0.164899E-02    0.160000E-02
    0.275679E-01    0.164899E-02    0.160000E-02
    0.280969E-01    0.164899E-02    0.160000E-02
    0.286312E-01    0.164899E-02    0.160000E-02
    0.291708E-01    0.164899E-02    0.160000E-02
    0.297159E-01    0.164899E-02    0.160000E-02
    0.302663E-01    0.164899E-02    0.160000E-02
    0.308223E-01    0.164899E-02    0.160000E-02
    0.255037E-01    0.190491E-02    0.160000E-02
    0.260121E-01    0.190491E-02    0.160000E-02
    0.265256E-01    0.190491E-02    0.160000E-02
    0.270441E-01    0.190491E-02    0.160000E-02
    0.275679E-01    0.190491E-02    0.160000E-02
    0.280969E-01    0.190491E-02    0.160000E-02
    0.286312E-01    0.190491E-02    0.160000E-02
    0.291708E-01    0.190491E-02    0.160000E-02
    0.297159E-01    0.190491E-02    0.160000E-02
    0.302663E-01    0.190491E-02    0.160000E-02
    0.308223E-01    0.190491E-02    0.160000E-02
    0.255037E-01    0.215571E-02    0.160000E-02
    0.260121E-01    0.215571E-02    0.160000E-02
    0.265256E-01    0.215571E-02    0.160000E-02
    0.270441E-01    0.215571E-02    0.160000E-02
    0.275679E-01    0.215571E-02    0.160000E-02
    0.280969E-01    0.215571E-02    0.160000E-02
    0.286312E-01    0.215571E-02    0.160000E-02
    0.291708E-01    0.215571E-02    0.160000E-02
    0.297159E-01    0.215571E-02    0.160000E-02
    0.302663E-01    0.215571E-02    0.160000E-02
    0.308223E-01    0.215571E-02    0.160000E-02
    0.255037E-01    0.240149E-02    0.160000E-02
    0.260121E-01    0.240149E-02    0.160000E-02
    0.265256E-01    0.240149E-02    0.160000E-02
    0.270441E-01    0.240149E-02    0.160000E-02
    0.275679E-01    0.240149E-02    0.160000E-02
    0.280969E-01    0.240149E-02    0.160000E-02
    0.286312E-01    0.240149E-02    0.160000E-02
    0.291708E-01    0.240149E-02    0.160000E-02
    0.297159E-01    0.240149E-02    0.160000E-02
    0.302663E-01    0.240149E-02    0.160000E-02
    0.308223E-01    0.240149E-02    0.160000E-02
    0.255037E-01    0.264236E-02    0.160000E-02
    0.260121E-01    0.264236E-02    0.160000E-02
    0.265256E-01    0.264236E-02    0.160000E-02
    0.270441E-01    0.264236E-02    0.160000E-02
    0.275679E-01    0.264236E-02    0.160000E-02
    0.280969E-01    0.264236E-02    0.160000E-02
    0.286312E-01    0.264236E-02    0.160000E-02
    0.291708E-01    0.264236E-02    0.160000E-02
    0.297159E-01    0.264236E-02    0.160000E-02
    0.302663E-01    0.264236E-02    0.160000E-02
    0.308223E-01    0.264236E-02    0.160000E-02
</DataArray>
</Points>
<PointData>
<DataArray Name="Velocity" type="Float64" format="ascii" NumberOfComponents="3">
    0.863261E-01    0.000000E+00    0.000000E+00
    0.864445E-01    0.000000E+00    0.000000E+00
    0.865554E-01    0.000000E+00    0.000000E+00
    0.866595E-01    0.000000E+00    0.000000E+00
    0.867571E-01    0.000000E+00    0.000000E+00
    0.868487E-01    0.000000E+00    0.000000E+00
    0.869348E-01    0.000000E+00    0.000000E+00
    0.870158E-01    0.000000E+00    0.000000E+00
    0.870920E-01    0.000000E+00    0.000000E+00
    0.871638E-01    0.000000E+00    0.000000E+00
    0.872314E-01    0.000000E+00    0.000000E+00
    0.863278E-01   -0.346392E-04    0.000000E+00
    0.864460E-01   -0.324341E-04    0.000000E+00
    0.865568E-01   -0.301003E-04    0.000000E+00
    0.866607E-01   -0.279534E-04    0.000000E+00
    0.867582E-01   -0.259781E-04    0.000000E+00
    0.868497E-01   -0.241598E-04    0.000000E+00
    0.869358E-01   -0.224849E-04    0.000000E+00
    0.870167E-01   -0.209410E-04    0.000000E+00
    0.870928E-01   -0.195164E-04    0.000000E+00
    0.871645E-01   -0.182008E-04    0.000000E+00
    0.872320E-01   -0.169846E-04    0.000000E+00
    0.863326E-01   -0.684468E-04    0.000000E+00
    0.864504E-01   -0.640938E-04    0.000000E+00
    0.865608E-01   -0.594863E-04    0.000000E+00
    0.866643E-01   -0.552477E-04    0.000000E+00
    0.867615E-01   -0.513475E-04    0.000000E+00
    0.868527E-01   -0.477570E-04    0.000000E+00
    0.869384E-01   -0.444495E-04    0.000000E+00
    0.870191E-01   -0.414002E-04    0.000000E+00
    0.870950E-01   -0.385865E-04    0.000000E+00
    0.871665E-01   -0.359877E-04    0.000000E+00
    0.872338E-01   -0.335850E-04    0.000000E+00
    0.863405E-01   -0.101317E-03    0.000000E+00
    0.864575E-01   -0.948828E-04    0.000000E+00
    0.865672E-01   -0.880725E-04    0.000000E+00
    0.866701E-01   -0.818070E-04    0.000000E+00
    0.867667E-01   -0.760411E-04    0.000000E+00
    0.868575E-01   -0.707325E-04    0.000000E+00
    0.869428E-01   -0.658414E-04    0.000000E+00
    0.870230E-01   -0.613316E-04    0.000000E+00
    0.870986E-01   -0.571694E-04    0.000000E+00
    0.871697E-01   -0.533246E-04    0.000000E+00
    0.872368E-01   -0.497692E-04    0.000000E+00
    0.863511E-01   -0.133159E-03    0.000000E+00
    0.864671E-01   -0.124721E-03    0.000000E+00
    0.865759E-01   -0.115788E-03    0.000000E+00
    0.866780E-01   -0.107568E-03    0.000000E+00
    0.867738E-01   -0.100003E-03    0.000000E+00
    0.868639E-01   -0.930367E-04    0.000000E+00
    0.869486E-01   -0.866171E-04    0.000000E+00
    0.870283E-01   -0.806965E-04    0.000000E+00
    0.871034E-01   -0.752312E-04    0.000000E+00
    0.871741E-01   -0.701814E-04    0.000000E+00
    0.872408E-01   -0.655109E-04    0.000000E+00
    0.863641E-01   -0.163904E-03    0.000000E+00
    0.864789E-01   -0.153543E-03    0.000000E+00
    0.865866E-01   -0.142574E-03    0.000000E+00
    0.866876E-01   -0.132481E-03    0.000000E+00
    0.867826E-01   -0.123189E-03    0.000000E+00
    0.868719E-01   -0.114630E-03    0.000000E+00
    0.869558E-01   -0.106741E-03    0.000000E+00
    0.870349E-01   -0.994640E-04    0.000000E+00
    0.871094E-01   -0.927445E-04    0.000000E+00
    0.871796E-01   -0.865342E-04    0.000000E+00
    0.872458E-01   -0.807888E-04    0.000000E+00
    0.863794E-01   -0.193495E-03    0.000000E+00
    0.864927E-01   -0.181301E-03    0.000000E+00
    0.865991E-01   -0.168389E-03    0.000000E+00
    0.866990E-01   -0.156506E-03    0.000000E+00
    0.867929E-01   -0.145564E-03    0.000000E+00
    0.868812E-01   -0.135483E-03    0.000000E+00
    0.869643E-01   -0.126188E-03    0.000000E+00
    0.870426E-01   -0.117611E-03    0.000000E+00
    0.871164E-01   -0.109689E-03    0.000000E+00
    0.871860E-01   -0.102365E-03    0.000000E+00
    0.872516E-01   -0.955866E-04    0.000000E+00
    0.863965E-01   -0.221897E-03    0.000000E+00
    0.865083E-01   -0.207960E-03    0.000000E+00
    0.866132E-01   -0.193202E-03    0.000000E+00
    0.867118E-01   -0.179617E-03    0.000000E+00
    0.868045E-01   -0.167105E-03    0.000000E+00
    0.868917E-01   -0.155573E-03    0.000000E+00
    0.869739E-01   -0.144938E-03    0.000000E+00
    0.870513E-01   -0.135120E-03    0.000000E+00
    0.871243E-01   -0.126049E-03    0.000000E+00
    0.871932E-01   -0.117660E-03    0.000000E+00
    0.872582E-01   -0.109893E-03    0.000000E+00
    0.864153E-01   -0.249086E-03    0.000000E+00
    0.865253E-01   -0.233501E-03    0.000000E+00
    0.866286E-01   -0.216996E-03    0.000000E+00
    0.867258E-01   -0.201799E-03    0.000000E+00
    0.868172E-01   -0.187798E-03    0.000000E+00
    0.869033E-01   -0.174890E-03    0.000000E+00
    0.869845E-01   -0.162981E-03    0.000000E+00
    0.870609E-01   -0.151983E-03    0.000000E+00
    0.871331E-01   -0.141818E-03    0.000000E+00
    0.872012E-01   -0.132412E-03    0.000000E+00
    0.872655E-01   -0.123702E-03    0.000000E+00
    0.864354E-01   -0.275057E-03    0.000000E+00
    0.865436E-01   -0.257919E-03    0.000000E+00
    0.866452E-01   -0.239767E-03    0.000000E+00
    0.867409E-01   -0.223047E-03    0.000000E+00
    0.868309E-01   -0.207640E-03    0.000000E+00
    0.869158E-01   -0.193430E-03    0.000000E+00
    0.869958E-01   -0.180314E-03    0.000000E+00
    0.870713E-01   -0.168197E-03    0.000000E+00
    0.871425E-01   -0.156992E-03    0.000000E+00
    0.872098E-01   -0.146620E-03    0.000000E+00
    0.872734E-01   -0.137011E-03    0.000000E+00
    0.864566E-01   -0.299832E-03    0.000000E+00
    0.865628E-01   -0.281233E-03    0.000000E+00
    0.866627E-01   -0.261529E-03    0.000000E+00
    0.867568E-01   -0.243377E-03    0.000000E+00
    0.868454E-01   -0.226643E-03    0.000000E+00
    0.869290E-01   -0.211203E-03    0.000000E+00
    0.870078E-01   -0.196946E-03    0.000000E+00
    0.870822E-01   -0.183769E-03    0.000000E+00
    0.871525E-01   -0.171578E-03    0.000000E+00
    0.872189E-01   -0.160288E-03    0.000000E+00
    0.872817E-01   -0.149823E-03    0.000000E+00
    0.863261E-01    0.000000E+00    0.000000E+00
    0.864445E-01    0.000000E+00    0.000000E+00
    0.865554E-01    0.000000E+00    0.000000E+00
    0.866595E-01    0.000000E+00    0.000000E+00
    0.867571E-01    0.000000E+00    0.000000E+00
    0.868487E-01    0.000000E+00    0.000000E+00
    0.869348E-01    0.000000E+00    0.000000E+00
    0.870158E-01    0.000000E+00    0.000000E+00
    0.870920E-01    0.000000E+00    0.000000E+00
    0.871638E-01    0.000000E+00    0.000000E+00
    0.872314E-01    0.000000E+00    0.000000E+00
    0.863278E-01   -0.349711E-04    0.856545E-20
    0.864460E-01   -0.324341E-04    0.794407E-20
    0.865568E-01   -0.301003E-04    0.737245E-20
    0.866607E-01   -0.279534E-04    0.684661E-20
    0.867582E-01   -0.259781E-04    0.636280E-20
    0.868497E-01   -0.241598E-04    0.591744E-20
    0.869358E-01   -0.224849E-04    0.550722E-20
    0.870167E-01   -0.209410E-04    0.512906E-20
    0.870928E-01   -0.195164E-04    0.478015E-20
    0.871645E-01   -0.182008E-04    0.445792E-20
    0.872320E-01   -0.169846E-04    0.416003E-20
    0.863326E-01   -0.691020E-04    0.169251E-19
    0.864504E-01   -0.640938E-04    0.156985E-19
    0.865608E-01   -0.594863E-04    0.145699E-19
    0.866643E-01   -0.552477E-04    0.135318E-19
    0.867615E-01   -0.513475E-04    0.125765E-19
    0.868527E-01   -0.477570E-04    0.116971E-19
    0.869384E-01   -0.444495E-04    0.108870E-19
    0.870191E-01   -0.414002E-04    0.101401E-19
    0.870950E-01   -0.385865E-04    0.945097E-20
    0.871665E-01   -0.359877E-04    0.881444E-20
    0.872338E-01   -0.335850E-04    0.822594E-20
    0.863405E-01   -0.102285E-03    0.250526E-19
    0.864575E-01   -0.948828E-04    0.232396E-19
    0.865672E-01   -0.880725E-04    0.215715E-19
    0.866701E-01   -0.818070E-04    0.200369E-19
    0.867667E-01   -0.760411E-04    0.186247E-19
    0.868575E-01   -0.707325E-04    0.173245E-19
    0.869428E-01   -0.658414E-04    0.161265E-19
    0.870230E-01   -0.613316E-04    0.150219E-19
    0.870986E-01   -0.571694E-04    0.140025E-19
    0.871697E-01   -0.533246E-04    0.130608E-19
    0.872368E-01   -0.497692E-04    0.121899E-19
    0.863511E-01   -0.134429E-03    0.329257E-19
    0.864671E-01   -0.124721E-03    0.305478E-19
    0.865759E-01   -0.115788E-03    0.283598E-19
    0.866780E-01   -0.107568E-03    0.263466E-19
    0.867738E-01   -0.100003E-03    0.244937E-19
    0.868639E-01   -0.930367E-04    0.227874E-19
    0.869486E-01   -0.866171E-04    0.212151E-19
    0.870283E-01   -0.806965E-04    0.197649E-19
    0.871034E-01   -0.752312E-04    0.184263E-19
    0.871741E-01   -0.701814E-04    0.171895E-19
    0.872408E-01   -0.655109E-04    0.160456E-19
    0.863641E-01   -0.165463E-03    0.405267E-19
    0.864789E-01   -0.153543E-03    0.376072E-19
    0.865866E-01   -0.142574E-03    0.349207E-19
    0.866876E-01   -0.132481E-03    0.324484E-19
    0.867826E-01   -0.123189E-03    0.301725E-19
    0.868719E-01   -0.114630E-03    0.280763E-19
    0.869558E-01   -0.106741E-03    0.261441E-19
    0.870349E-01   -0.994640E-04    0.243617E-19
    0.871094E-01   -0.927445E-04    0.227159E-19
    0.871796E-01   -0.865342E-04    0.211948E-19
    0.872458E-01   -0.807888E-04    0.197875E-19
    0.863794E-01   -0.195331E-03    0.478422E-19
    0.864927E-01   -0.181301E-03    0.444059E-19
    0.865991E-01   -0.168389E-03    0.412435E-19
    0.866990E-01   -0.156506E-03    0.383328E-19
    0.867929E-01   -0.145564E-03    0.356528E-19
    0.868812E-01   -0.135483E-03    0.331837E-19
    0.869643E-01   -0.126188E-03    0.309071E-19
    0.870426E-01   -0.117611E-03    0.288063E-19
    0.871164E-01   -0.109689E-03    0.268660E-19
    0.871860E-01   -0.102365E-03    0.250721E-19
    0.872516E-01   -0.955866E-04    0.234120E-19
    0.863965E-01   -0.223994E-03    0.548627E-19
    0.865083E-01   -0.207960E-03    0.509355E-19
    0.866132E-01   -0.193202E-03    0.473209E-19
    0.867118E-01   -0.179617E-03    0.439934E-19
    0.868045E-01   -0.167105E-03    0.409288E-19
    0.868917E-01   -0.155573E-03    0.381045E-19
    0.869739E-01   -0.144938E-03    0.354995E-19
    0.870513E-01   -0.135120E-03    0.330949E-19
    0.871243E-01   -0.126049E-03    0.308732E-19
    0.871932E-01   -0.117660E-03    0.288183E-19
    0.872582E-01   -0.109893E-03    0.269161E-19
    0.864153E-01   -0.251431E-03    0.615829E-19
    0.865253E-01   -0.233501E-03    0.571913E-19
    0.866286E-01   -0.216996E-03    0.531488E-19
    0.867258E-01   -0.201799E-03    0.494265E-19
    0.868172E-01   -0.187798E-03    0.459972E-19
    0.869033E-01   -0.174890E-03    0.428357E-19
    0.869845E-01   -0.162981E-03    0.399188E-19
    0.870609E-01   -0.151983E-03    0.372252E-19
    0.871331E-01   -0.141818E-03    0.347353E-19
    0.872012E-01   -0.132412E-03    0.324317E-19
    0.872655E-01   -0.123702E-03    0.302982E-19
    0.864354E-01   -0.277636E-03    0.680013E-19
    0.865436E-01   -0.257919E-03    0.631720E-19
    0.866452E-01   -0.239767E-03    0.587259E-19
    0.867409E-01   -0.223047E-03    0.546309E-19
    0.868309E-01   -0.207640E-03    0.508571E-19
    0.869158E-01   -0.193430E-03    0.473767E-19
    0.869958E-01   -0.180314E-03    0.441642E-19
    0.870713E-01   -0.168197E-03    0.411964E-19
    0.871425E-01   -0.156992E-03    0.384519E-19
    0.872098E-01   -0.146620E-03    0.359116E-19
    0.872734E-01   -0.137011E-03    0.335580E-19
    0.864566E-01   -0.302630E-03    0.741230E-19
    0.865628E-01   -0.281233E-03    0.688821E-19
    0.866627E-01   -0.261529E-03    0.640561E-19
    0.867568E-01   -0.243377E-03    0.596101E-19
    0.868454E-01   -0.226643E-03    0.555114E-19
    0.869290E-01   -0.211203E-03    0.517299E-19
    0.870078E-01   -0.196946E-03    0.482379E-19
    0.870822E-01   -0.183769E-03    0.450104E-19
    0.871525E-01   -0.171578E-03    0.420244E-19
    0.872189E-01   -0.160288E-03    0.392592E-19
    0.872817E-01   -0.149823E-03    0.366960E-19
</DataArray>
</PointData>
<CellData>
<DataArray Name="DP" type="Float64" format="ascii" NumberOfComponents="1">
      0.000000E+0000
      0.000000E+0000
      0.000000E+0000
      0.000000E+0000
      0.000000E+0000
      0.000000E+0000
      0.000000E+0000
      0.000000E+0000
      0.000000E+0000
      0.000000E+0000
      0.000000E+0000
      0.000000E+0000
      0.000000E+0000
      0.000000E+0000
      0.000000E+0000
      0.000000E+0000
      0.000000E+0000
      0.000000E+0000
      0.000000E+0000
      0.000000E+0000
      0.000000E+0000
      0.000000E+0000
      0.000000E+0000
      0.000000E+0000
      0.000000E+0000
      0.000000E+0000
      0.000000E+0000
      0.000000E+0000
      0.000000E+0000
      0.000000E+0000
      0.000000E+0000
      0.000000E+0000
      0.000000E+0000
      0.000000E+0000
      0.000000E+0000
      0.000000E+0000
      0.000000E+0000
      0.000000E+0000
      0.000000E+0000
      0.000000E+0000
      0.000000E+0000
      0.000000E+0000
      0.000000E+0000
      0.000000E+0000
      0.000000E+0000
      0.000000E+0000
      0.000000E+0000
      0.000000E+0000
      0.000000E+0000
      0.000000E+0000
      0.000000E+0000
      0.000000E+0000
      0.000000E+0000
      0.000000E+0000
      0.000000E+0000
      0.000000E+0000
      0.000000E+0000
      0.000000E+0000
      0.000000E+0000
      0.000000E+0000
      0.000000E+0000
      0.000000E+0000
      0.000000E+0000
      0.000000E+0000
      0.000000E+0000
      0.000000E+0000
      0.000000E+0000
      0.000000E+0000
      0.000000E+0000
      0.000000E+0000
      0.000000E+0000
      0.000000E+0000
      0.000000E+0000
      0.000000E+0000
      0.000000E+0000
      0.000000E+0000
      0.000000E+0000
      0.000000E+0000
      0.000000E+0000
      0.000000E+0000
      0.000000E+0000
      0.000000E+0000
      0.000000E+0000
      0.000000E+0000
      0.000000E+0000
      0.000000E+0000
      0.000000E+0000
      0.000000E+0000
      0.000000E+0000
      0.000000E+0000
      0.000000E+0000
      0.000000E+0000
      0.000000E+0000
      0.000000E+0000
      0.000000E+0000
      0.000000E+0000
      0.000000E+0000
      0.000000E+0000
      0.000000E+0000
      0.000000E+0000
</DataArray>
<DataArray Name="P" type="Float64" format="ascii" NumberOfComponents="1">
      0.337196E+0000
      0.331310E+0000
      0.325366E+0000
      0.319363E+0000
      0.313302E+0000
      0.307180E+0000
      0.300997E+0000
      0.294754E+0000
      0.288448E+0000
      0.282080E+0000
      0.337196E+0000
      0.331310E+0000
      0.325366E+0000
      0.319363E+0000
      0.313301E+0000
      0.307180E+0000
      0.300997E+0000
      0.294754E+0000
      0.288448E+0000
      0.282080E+0000
      0.337196E+0000
      0.331310E+0000
      0.325366E+0000
      0.319363E+0000
      0.313301E+0000
      0.307179E+0000
      0.300997E+0000
      0.294753E+0000
      0.288448E+0000
      0.282080E+0000
      0.337195E+0000
      0.331309E+0000
      0.325365E+0000
      0.319363E+0000
      0.313301E+0000
      0.307179E+0000
      0.300997E+0000
      0.294753E+0000
      0.288448E+0000
      0.282079E+0000
      0.337194E+0000
      0.331309E+0000
      0.325365E+0000
      0.319362E+0000
      0.313300E+0000
      0.307179E+0000
      0.300997E+0000
      0.294753E+0000
      0.288447E+0000
      0.282079E+0000
      0.337194E+0000
      0.331308E+0000
      0.325364E+0000
      0.319362E+0000
      0.313300E+0000
      0.307178E+0000
      0.300996E+0000
      0.294753E+0000
      0.288447E+0000
      0.282079E+0000
      0.337193E+0000
      0.331307E+0000
      0.325363E+0000
      0.319361E+0000
      0.313299E+0000
      0.307178E+0000
      0.300996E+0000
      0.294752E+0000
      0.288447E+0000
      0.282079E+0000
      0.337192E+0000
      0.331306E+0000
      0.325363E+0000
      0.319360E+0000
      0.313299E+0000
      0.307177E+0000
      0.300995E+0000
      0.294752E+0000
      0.288446E+0000
      0.282078E+0000
      0.337191E+0000
      0.331305E+0000
      0.325362E+0000
      0.319360E+0000
      0.313298E+0000
      0.307177E+0000
      0.300995E+0000
      0.294751E+0000
      0.288446E+0000
      0.282078E+0000
      0.337189E+0000
      0.331304E+0000
      0.325361E+0000
      0.319359E+0000
      0.313297E+0000
      0.307176E+0000
      0.300994E+0000
      0.294751E+0000
      0.288445E+0000
      0.282078E+0000
</DataArray>
<DataArray Name="RHO" type="Float64" format="ascii" NumberOfComponents="1">
      0.117197E+0001
      0.117197E+0001
      0.117197E+0001
      0.117197E+0001
      0.117197E+0001
      0.117197E+0001
      0.117197E+0001
      0.117197E+0001
      0.117197E+0001
      0.117197E+0001
      0.117197E+0001
      0.117197E+0001
      0.117197E+0001
      0.117197E+0001
      0.117197E+0001
      0.117197E+0001
      0.117197E+0001
      0.117197E+0001
      0.117197E+0001
      0.117197E+0001
      0.117197E+0001
      0.117197E+0001
      0.117197E+0001
      0.117197E+0001
      0.117197E+0001
      0.117197E+0001
      0.117197E+0001
      0.117197E+0001
      0.117197E+0001
      0.117197E+0001
      0.117197E+0001
      0.117197E+0001
      0.117197E+0001
      0.117197E+0001
      0.117197E+0001
      0.117197E+0001
      0.117197E+0001
      0.117197E+0001
      0.117197E+0001
      0.117197E+0001
      0.117197E+0001
      0.117197E+0001
      0.117197E+0001
      0.117197E+0001
      0.117197E+0001
      0.117197E+0001
      0.117197E+0001
      0.117197E+0001
      0.117197E+0001
      0.117197E+0001
      0.117197E+0001
      0.117197E+0001
      0.117197E+0001
      0.117197E+0001
      0.117197E+0001
      0.117197E+0001
      0.117197E+0001
      0.117197E+0001
      0.117197E+0001
      0.117197E+0001
      0.117197E+0001
      0.117197E+0001