<?xml version="1.0"?>
<VTKFile type="StructuredGrid" version="0.1" byte_order="LittleEndian">
<StructuredGrid WholeExtent="         180         190          10          20           0           1">
<Piece Extent="         180         190          10          20           0           1">
<Points>
<DataArray NumberOfComponents="3" type="Float64" format="ascii">
    0.126556E+00    0.264236E-02    0.000000E+00
    0.128075E+00    0.264236E-02    0.000000E+00
    0.129609E+00    0.264236E-02    0.000000E+00
    0.131158E+00    0.264236E-02    0.000000E+00
    0.132723E+00    0.264236E-02    0.000000E+00
    0.134304E+00    0.264236E-02    0.000000E+00
    0.135900E+00    0.264236E-02    0.000000E+00
    0.137512E+00    0.264236E-02    0.000000E+00
    0.139141E+00    0.264236E-02    0.000000E+00
    0.140785E+00    0.264236E-02    0.000000E+00
    0.142447E+00    0.264236E-02    0.000000E+00
    0.126556E+00    0.287841E-02    0.000000E+00
    0.128075E+00    0.287841E-02    0.000000E+00
    0.129609E+00    0.287841E-02    0.000000E+00
    0.131158E+00    0.287841E-02    0.000000E+00
    0.132723E+00    0.287841E-02    0.000000E+00
    0.134304E+00    0.287841E-02    0.000000E+00
    0.135900E+00    0.287841E-02    0.000000E+00
    0.137512E+00    0.287841E-02    0.000000E+00
    0.139141E+00    0.287841E-02    0.000000E+00
    0.140785E+00    0.287841E-02    0.000000E+00
    0.142447E+00    0.287841E-02    0.000000E+00
    0.126556E+00    0.310974E-02    0.000000E+00
    0.128075E+00    0.310974E-02    0.000000E+00
    0.129609E+00    0.310974E-02    0.000000E+00
    0.131158E+00    0.310974E-02    0.000000E+00
    0.132723E+00    0.310974E-02    0.000000E+00
    0.134304E+00    0.310974E-02    0.000000E+00
    0.135900E+00    0.310974E-02    0.000000E+00
    0.137512E+00    0.310974E-02    0.000000E+00
    0.139141E+00    0.310974E-02    0.000000E+00
    0.140785E+00    0.310974E-02    0.000000E+00
    0.142447E+00    0.310974E-02    0.000000E+00
    0.126556E+00    0.333644E-02    0.000000E+00
    0.128075E+00    0.333644E-02    0.000000E+00
    0.129609E+00    0.333644E-02    0.000000E+00
    0.131158E+00    0.333644E-02    0.000000E+00
    0.132723E+00    0.333644E-02    0.000000E+00
    0.134304E+00    0.333644E-02    0.000000E+00
    0.135900E+00    0.333644E-02    0.000000E+00
    0.137512E+00    0.333644E-02    0.000000E+00
    0.139141E+00    0.333644E-02    0.000000E+00
    0.140785E+00    0.333644E-02    0.000000E+00
    0.142447E+00    0.333644E-02    0.000000E+00
    0.126556E+00    0.355861E-02    0.000000E+00
    0.128075E+00    0.355861E-02    0.000000E+00
    0.129609E+00    0.355861E-02    0.000000E+00
    0.131158E+00    0.355861E-02    0.000000E+00
    0.132723E+00    0.355861E-02    0.000000E+00
    0.134304E+00    0.355861E-02    0.000000E+00
    0.135900E+00    0.355861E-02    0.000000E+00
    0.137512E+00    0.355861E-02    0.000000E+00
    0.139141E+00    0.355861E-02    0.000000E+00
    0.140785E+00    0.355861E-02    0.000000E+00
    0.142447E+00    0.355861E-02    0.000000E+00
    0.126556E+00    0.377633E-02    0.000000E+00
    0.128075E+00    0.377633E-02    0.000000E+00
    0.129609E+00    0.377633E-02    0.000000E+00
    0.131158E+00    0.377633E-02    0.000000E+00
    0.132723E+00    0.377633E-02    0.000000E+00
    0.134304E+00    0.377633E-02    0.000000E+00
    0.135900E+00    0.377633E-02    0.000000E+00
    0.137512E+00    0.377633E-02    0.000000E+00
    0.139141E+00    0.377633E-02    0.000000E+00
    0.140785E+00    0.377633E-02    0.000000E+00
    0.142447E+00    0.377633E-02    0.000000E+00
    0.126556E+00    0.398970E-02    0.000000E+00
    0.128075E+00    0.398970E-02    0.000000E+00
    0.129609E+00    0.398970E-02    0.000000E+00
    0.131158E+00    0.398970E-02    0.000000E+00
    0.132723E+00    0.398970E-02    0.000000E+00
    0.134304E+00    0.398970E-02    0.000000E+00
    0.135900E+00    0.398970E-02    0.000000E+00
    0.137512E+00    0.398970E-02    0.000000E+00
    0.139141E+00    0.398970E-02    0.000000E+00
    0.140785E+00    0.398970E-02    0.000000E+00
    0.142447E+00    0.398970E-02    0.000000E+00
    0.126556E+00    0.419881E-02    0.000000E+00
    0.128075E+00    0.419881E-02    0.000000E+00
    0.129609E+00    0.419881E-02    0.000000E+00
    0.131158E+00    0.419881E-02    0.000000E+00
    0.132723E+00    0.419881E-02    0.000000E+00
    0.134304E+00    0.419881E-02    0.000000E+00
    0.135900E+00    0.419881E-02    0.000000E+00
    0.137512E+00    0.419881E-02    0.000000E+00
    0.139141E+00    0.419881E-02    0.000000E+00
    0.140785E+00    0.419881E-02    0.000000E+00
    0.142447E+00    0.419881E-02    0.000000E+00
    0.126556E+00    0.440373E-02    0.000000E+00
    0.128075E+00    0.440373E-02    0.000000E+00
    0.129609E+00    0.440373E-02    0.000000E+00
    0.131158E+00    0.440373E-02    0.000000E+00
    0.132723E+00    0.440373E-02    0.000000E+00
    0.134304E+00    0.440373E-02    0.000000E+00
    0.135900E+00    0.440373E-02    0.000000E+00
    0.137512E+00    0.440373E-02    0.000000E+00
    0.139141E+00    0.440373E-02    0.000000E+00
    0.140785E+00    0.440373E-02    0.000000E+00
    0.142447E+00    0.440373E-02    0.000000E+00
    0.126556E+00    0.460455E-02    0.000000E+00
    0.128075E+00    0.460455E-02    0.000000E+00
    0.129609E+00    0.460455E-02    0.000000E+00
    0.131158E+00    0.460455E-02    0.000000E+00
    0.132723E+00    0.460455E-02    0.000000E+00
    0.134304E+00    0.460455E-02    0.000000E+00
    0.135900E+00    0.460455E-02    0.000000E+00
    0.137512E+00    0.460455E-02    0.000000E+00
    0.139141E+00    0.460455E-02    0.000000E+00
    0.140785E+00    0.460455E-02    0.000000E+00
    0.142447E+00    0.460455E-02    0.000000E+00
    0.126556E+00    0.480136E-02    0.000000E+00
    0.128075E+00    0.480136E-02    0.000000E+00
    0.129609E+00    0.480136E-02    0.000000E+00
    0.131158E+00    0.480136E-02    0.000000E+00
    0.132723E+00    0.480136E-02    0.000000E+00
    0.134304E+00    0.480136E-02    0.000000E+00
    0.135900E+00    0.480136E-02    0.000000E+00
    0.137512E+00    0.480136E-02    0.000000E+00
    0.139141E+00    0.480136E-02    0.000000E+00
    0.140785E+00    0.480136E-02    0.000000E+00
    0.142447E+00    0.480136E-02    0.000000E+00
    0.126556E+00    0.264236E-02    0.160000E-02
    0.128075E+00    0.264236E-02    0.160000E-02
    0.129609E+00    0.264236E-02    0.160000E-02
    0.131158E+00    0.264236E-02    0.160000E-02
    0.132723E+00    0.264236E-02    0.160000E-02
    0.134304E+00    0.264236E-02    0.160000E-02
    0.135900E+00    0.264236E-02    0.160000E-02
    0.137512E+00    0.264236E-02    0.160000E-02
    0.139141E+00    0.264236E-02    0.160000E-02
    0.140785E+00    0.264236E-02    0.160000E-02
    0.142447E+00    0.264236E-02    0.160000E-02
    0.126556E+00    0.287841E-02    0.160000E-02
    0.128075E+00    0.287841E-02    0.160000E-02
    0.129609E+00    0.287841E-02    0.160000E-02
    0.131158E+00    0.287841E-02    0.160000E-02
    0.132723E+00    0.287841E-02    0.160000E-02
    0.134304E+00    0.287841E-02    0.160000E-02
    0.135900E+00    0.287841E-02    0.160000E-02
    0.137512E+00    0.287841E-02    0.160000E-02
    0.139141E+00    0.287841E-02    0.160000E-02
    0.140785E+00    0.287841E-02    0.160000E-02
    0.142447E+00    0.287841E-02    0.160000E-02
    0.126556E+00    0.310974E-02    0.160000E-02
    0.128075E+00    0.310974E-02    0.160000E-02
    0.129609E+00    0.310974E-02    0.160000E-02
    0.131158E+00    0.310974E-02    0.160000E-02
    0.132723E+00    0.310974E-02    0.160000E-02
    0.134304E+00    0.310974E-02    0.160000E-02
    0.135900E+00    0.310974E-02    0.160000E-02
    0.137512E+00    0.310974E-02    0.160000E-02
    0.139141E+00    0.310974E-02    0.160000E-02
    0.140785E+00    0.310974E-02    0.160000E-02
    0.142447E+00    0.310974E-02    0.160000E-02
    0.126556E+00    0.333644E-02    0.160000E-02
    0.128075E+00    0.333644E-02    0.160000E-02
    0.129609E+00    0.333644E-02    0.160000E-02
    0.131158E+00    0.333644E-02    0.160000E-02
    0.132723E+00    0.333644E-02    0.160000E-02
    0.134304E+00    0.333644E-02    0.160000E-02
    0.135900E+00    0.333644E-02    0.160000E-02
    0.137512E+00    0.333644E-02    0.160000E-02
    0.139141E+00    0.333644E-02    0.160000E-02
    0.140785E+00    0.333644E-02    0.160000E-02
    0.142447E+00    0.333644E-02    0.160000E-02
    0.126556E+00    0.355861E-02    0.160000E-02
    0.128075E+00    0.355861E-02    0.160000E-02
    0.129609E+00    0.355861E-02    0.160000E-02
    0.131158E+00    0.355861E-02    0.160000E-02
    0.132723E+00    0.355861E-02    0.160000E-02
    0.134304E+00    0.355861E-02    0.160000E-02
    0.135900E+00    0.355861E-02    0.160000E-02
    0.137512E+00    0.355861E-02    0.160000E-02
    0.139141E+00    0.355861E-02    0.160000E-02
    0.140785E+00    0.355861E-02    0.160000E-02
    0.142447E+00    0.355861E-02    0.160000E-02
    0.126556E+00    0.377633E-02    0.160000E-02
    0.128075E+00    0.377633E-02    0.160000E-02
    0.129609E+00    0.377633E-02    0.160000E-02
    0.131158E+00    0.377633E-02    0.160000E-02
    0.132723E+00    0.377633E-02    0.160000E-02
    0.134304E+00    0.377633E-02    0.160000E-02
    0.135900E+00    0.377633E-02    0.160000E-02
    0.137512E+00    0.377633E-02    0.160000E-02
    0.139141E+00    0.377633E-02    0.160000E-02
    0.140785E+00    0.377633E-02    0.160000E-02
    0.142447E+00    0.377633E-02    0.160000E-02
    0.126556E+00    0.398970E-02    0.160000E-02
    0.128075E+00    0.398970E-02    0.160000E-02
    0.129609E+00    0.398970E-02    0.160000E-02
    0.131158E+00    0.398970E-02    0.160000E-02
    0.132723E+00    0.398970E-02    0.160000E-02
    0.134304E+00    0.398970E-02    0.160000E-02
    0.135900E+00    0.398970E-02    0.160000E-02
    0.137512E+00    0.398970E-02    0.160000E-02
    0.139141E+00    0.398970E-02    0.160000E-02
    0.140785E+00    0.398970E-02    0.160000E-02
    0.142447E+00    0.398970E-02    0.160000E-02
    0.126556E+00    0.419881E-02    0.160000E-02
    0.128075E+00    0.419881E-02    0.160000E-02
    0.129609E+00    0.419881E-02    0.160000E-02
    0.131158E+00    0.419881E-02    0.160000E-02
    0.132723E+00    0.419881E-02    0.160000E-02
    0.134304E+00    0.419881E-02    0.160000E-02
    0.135900E+00    0.419881E-02    0.160000E-02
    0.137512E+00    0.419881E-02    0.160000E-02
    0.139141E+00    0.419881E-02    0.160000E-02
    0.140785E+00    0.419881E-02    0.160000E-02
    0.142447E+00    0.419881E-02    0.160000E-02
    0.126556E+00    0.440373E-02    0.160000E-02
    0.128075E+00    0.440373E-02    0.160000E-02
    0.129609E+00    0.440373E-02    0.160000E-02
    0.131158E+00    0.440373E-02    0.160000E-02
    0.132723E+00    0.440373E-02    0.160000E-02
    0.134304E+00    0.440373E-02    0.160000E-02
    0.135900E+00    0.440373E-02    0.160000E-02
    0.137512E+00    0.440373E-02    0.160000E-02
    0.139141E+00    0.440373E-02    0.160000E-02
    0.140785E+00    0.440373E-02    0.160000E-02
    0.142447E+00    0.440373E-02    0.160000E-02
    0.126556E+00    0.460455E-02    0.160000E-02
    0.128075E+00    0.460455E-02    0.160000E-02
    0.129609E+00    0.460455E-02    0.160000E-02
    0.131158E+00    0.460455E-02    0.160000E-02
    0.132723E+00    0.460455E-02    0.160000E-02
    0.134304E+00    0.460455E-02    0.160000E-02
    0.135900E+00    0.460455E-02    0.160000E-02
    0.137512E+00    0.460455E-02    0.160000E-02
    0.139141E+00    0.460455E-02    0.160000E-02
    0.140785E+00    0.460455E-02    0.160000E-02
    0.142447E+00    0.460455E-02    0.160000E-02
    0.126556E+00    0.480136E-02    0.160000E-02
    0.128075E+00    0.480136E-02    0.160000E-02
    0.129609E+00    0.480136E-02    0.160000E-02
    0.131158E+00    0.480136E-02    0.160000E-02
    0.132723E+00    0.480136E-02    0.160000E-02
    0.134304E+00    0.480136E-02    0.160000E-02
    0.135900E+00    0.480136E-02    0.160000E-02
    0.137512E+00    0.480136E-02    0.160000E-02
    0.139141E+00    0.480136E-02    0.160000E-02
    0.140785E+00    0.480136E-02    0.160000E-02
    0.142447E+00    0.480136E-02    0.160000E-02
</DataArray>
</Points>
<PointData>
<DataArray Name="Velocity" type="Float64" format="ascii" NumberOfComponents="3">
    0.884100E-01   -0.677509E-07    0.000000E+00
    0.884101E-01   -0.631435E-07    0.000000E+00
    0.884102E-01   -0.578827E-07    0.000000E+00
    0.884102E-01   -0.502956E-07    0.000000E+00
    0.884103E-01   -0.426193E-07    0.000000E+00
    0.884103E-01   -0.370331E-07    0.000000E+00
    0.884104E-01   -0.366880E-07    0.000000E+00
    0.884104E-01   -0.208898E-07    0.000000E+00
    0.884105E-01   -0.242531E-07    0.000000E+00
    0.884105E-01   -0.202619E-07    0.000000E+00
    0.884105E-01   -0.128490E-07    0.000000E+00
    0.884100E-01   -0.725318E-07    0.000000E+00
    0.884101E-01   -0.683775E-07    0.000000E+00
    0.884102E-01   -0.634585E-07    0.000000E+00
    0.884102E-01   -0.531794E-07    0.000000E+00
    0.884103E-01   -0.425878E-07    0.000000E+00
    0.884103E-01   -0.381161E-07    0.000000E+00
    0.884104E-01   -0.347982E-07    0.000000E+00
    0.884104E-01   -0.273916E-07    0.000000E+00
    0.884105E-01   -0.198480E-07    0.000000E+00
    0.884105E-01   -0.187670E-07    0.000000E+00
    0.884105E-01   -0.187673E-07    0.000000E+00
    0.884100E-01   -0.793578E-07    0.000000E+00
    0.884101E-01   -0.739662E-07    0.000000E+00
    0.884102E-01   -0.678799E-07    0.000000E+00
    0.884102E-01   -0.579748E-07    0.000000E+00
    0.884103E-01   -0.474675E-07    0.000000E+00
    0.884103E-01   -0.419317E-07    0.000000E+00
    0.884104E-01   -0.384373E-07    0.000000E+00
    0.884104E-01   -0.312158E-07    0.000000E+00
    0.884105E-01   -0.233970E-07    0.000000E+00
    0.884105E-01   -0.216039E-07    0.000000E+00
    0.884105E-01   -0.206117E-07    0.000000E+00
    0.884100E-01   -0.859239E-07    0.000000E+00
    0.884101E-01   -0.794536E-07    0.000000E+00
    0.884102E-01   -0.723252E-07    0.000000E+00
    0.884102E-01   -0.626225E-07    0.000000E+00
    0.884103E-01   -0.520293E-07    0.000000E+00
    0.884103E-01   -0.455788E-07    0.000000E+00
    0.884104E-01   -0.419908E-07    0.000000E+00
    0.884104E-01   -0.348757E-07    0.000000E+00
    0.884105E-01   -0.266655E-07    0.000000E+00
    0.884105E-01   -0.242277E-07    0.000000E+00
    0.884105E-01   -0.224162E-07    0.000000E+00
    0.884100E-01   -0.922374E-07    0.000000E+00
    0.884101E-01   -0.847953E-07    0.000000E+00
    0.884102E-01   -0.767412E-07    0.000000E+00
    0.884102E-01   -0.671546E-07    0.000000E+00
    0.884103E-01   -0.563711E-07    0.000000E+00
    0.884103E-01   -0.490782E-07    0.000000E+00
    0.884104E-01   -0.454704E-07    0.000000E+00
    0.884104E-01   -0.384124E-07    0.000000E+00
    0.884105E-01   -0.297213E-07    0.000000E+00
    0.884105E-01   -0.267828E-07    0.000000E+00
    0.884105E-01   -0.242483E-07    0.000000E+00
    0.884100E-01   -0.983321E-07    0.000000E+00
    0.884101E-01   -0.900009E-07    0.000000E+00
    0.884102E-01   -0.810999E-07    0.000000E+00
    0.884102E-01   -0.715810E-07    0.000000E+00
    0.884103E-01   -0.605287E-07    0.000000E+00
    0.884103E-01   -0.524335E-07    0.000000E+00
    0.884104E-01   -0.488710E-07    0.000000E+00
    0.884104E-01   -0.418526E-07    0.000000E+00
    0.884105E-01   -0.325872E-07    0.000000E+00
    0.884105E-01   -0.292817E-07    0.000000E+00
    0.884105E-01   -0.260691E-07    0.000000E+00
    0.884100E-01   -0.104238E-06    0.000000E+00
    0.884101E-01   -0.950796E-07    0.000000E+00
    0.884102E-01   -0.853814E-07    0.000000E+00
    0.884102E-01   -0.758987E-07    0.000000E+00
    0.884103E-01   -0.645235E-07    0.000000E+00
    0.884103E-01   -0.556638E-07    0.000000E+00
    0.884104E-01   -0.521994E-07    0.000000E+00
    0.884104E-01   -0.451939E-07    0.000000E+00
    0.884105E-01   -0.352824E-07    0.000000E+00
    0.884105E-01   -0.316994E-07    0.000000E+00
    0.884105E-01   -0.278571E-07    0.000000E+00
    0.884100E-01   -0.109979E-06    0.000000E+00
    0.884101E-01   -0.100034E-06    0.000000E+00
    0.884102E-01   -0.895883E-07    0.000000E+00
    0.884102E-01   -0.801291E-07    0.000000E+00
    0.884103E-01   -0.683714E-07    0.000000E+00
    0.884103E-01   -0.587823E-07    0.000000E+00
    0.884104E-01   -0.554755E-07    0.000000E+00
    0.884104E-01   -0.484086E-07    0.000000E+00
    0.884105E-01   -0.377900E-07    0.000000E+00
    0.884105E-01   -0.340184E-07    0.000000E+00
    0.884105E-01   -0.296281E-07    0.000000E+00
    0.884100E-01   -0.115570E-06    0.000000E+00
    0.884101E-01   -0.104863E-06    0.000000E+00
    0.884102E-01   -0.937464E-07    0.000000E+00
    0.884102E-01   -0.843250E-07    0.000000E+00
    0.884103E-01   -0.720645E-07    0.000000E+00
    0.884103E-01   -0.617507E-07    0.000000E+00
    0.884104E-01   -0.587102E-07    0.000000E+00
    0.884104E-01   -0.514742E-07    0.000000E+00
    0.884105E-01   -0.400598E-07    0.000000E+00
    0.884105E-01   -0.362746E-07    0.000000E+00
    0.884105E-01   -0.314411E-07    0.000000E+00
    0.884100E-01   -0.121001E-06    0.000000E+00
    0.884101E-01   -0.109580E-06    0.000000E+00
    0.884102E-01   -0.978414E-07    0.000000E+00
    0.884102E-01   -0.884506E-07    0.000000E+00
    0.884103E-01   -0.755319E-07    0.000000E+00
    0.884103E-01   -0.645006E-07    0.000000E+00
    0.884104E-01   -0.620068E-07    0.000000E+00
    0.884104E-01   -0.545070E-07    0.000000E+00
    0.884105E-01   -0.421069E-07    0.000000E+00
    0.884105E-01   -0.385648E-07    0.000000E+00
    0.884105E-01   -0.333308E-07    0.000000E+00
    0.884100E-01   -0.124658E-06    0.000000E+00
    0.884101E-01   -0.105321E-06    0.000000E+00
    0.884102E-01   -0.101927E-06    0.000000E+00
    0.884102E-01   -0.909729E-07    0.000000E+00
    0.884103E-01   -0.745309E-07    0.000000E+00
    0.884103E-01   -0.726721E-07    0.000000E+00
    0.884104E-01   -0.582040E-07    0.000000E+00
    0.884104E-01   -0.572008E-07    0.000000E+00
    0.884105E-01   -0.475273E-07    0.000000E+00
    0.884105E-01   -0.341496E-07    0.000000E+00
    0.884105E-01   -0.379527E-07    0.000000E+00
    0.884100E-01   -0.699776E-07    0.171396E-22
    0.884101E-01   -0.631435E-07    0.154657E-22
    0.884102E-01   -0.578827E-07    0.141772E-22
    0.884102E-01   -0.502956E-07    0.123189E-22
    0.884103E-01   -0.426193E-07    0.104387E-22
    0.884103E-01   -0.370331E-07    0.907049E-23
    0.884104E-01   -0.366880E-07    0.898598E-23
    0.884104E-01   -0.208898E-07    0.511654E-23
    0.884105E-01   -0.242531E-07    0.594030E-23
    0.884105E-01   -0.202619E-07    0.496274E-23
    0.884105E-01   -0.128490E-07    0.314709E-23
    0.884100E-01   -0.734749E-07    0.179962E-22
    0.884101E-01   -0.683775E-07    0.167477E-22
    0.884102E-01   -0.634585E-07    0.155429E-22
    0.884102E-01   -0.531794E-07    0.130252E-22
    0.884103E-01   -0.425878E-07    0.104310E-22
    0.884103E-01   -0.381161E-07    0.933574E-23
    0.884104E-01   -0.347982E-07    0.852309E-23
    0.884104E-01   -0.273916E-07    0.670900E-23
    0.884105E-01   -0.198480E-07    0.486136E-23
    0.884105E-01   -0.187670E-07    0.459660E-23
    0.884105E-01   -0.187673E-07    0.459667E-23
    0.884100E-01   -0.804011E-07    0.196926E-22
    0.884101E-01   -0.739662E-07    0.181165E-22
    0.884102E-01   -0.678799E-07    0.166258E-22
    0.884102E-01   -0.579748E-07    0.141997E-22
    0.884103E-01   -0.474675E-07    0.116262E-22
    0.884103E-01   -0.419317E-07    0.102703E-22
    0.884104E-01   -0.384373E-07    0.941442E-23
    0.884104E-01   -0.312158E-07    0.764567E-23
    0.884105E-01   -0.233970E-07    0.573062E-23
    0.884105E-01   -0.216039E-07    0.529144E-23
    0.884105E-01   -0.206117E-07    0.504840E-23
    0.884100E-01   -0.870526E-07    0.213217E-22
    0.884101E-01   -0.794536E-07    0.194605E-22
    0.884102E-01   -0.723252E-07    0.177146E-22
    0.884102E-01   -0.626225E-07    0.153381E-22
    0.884103E-01   -0.520293E-07    0.127435E-22
    0.884103E-01   -0.455788E-07    0.111636E-22
    0.884104E-01   -0.419908E-07    0.102848E-22
    0.884104E-01   -0.348757E-07    0.854208E-23
    0.884105E-01   -0.266655E-07    0.653116E-23
    0.884105E-01   -0.242277E-07    0.593408E-23
    0.884105E-01   -0.224162E-07    0.549038E-23
    0.884100E-01   -0.934447E-07    0.228873E-22
    0.884101E-01   -0.847953E-07    0.207689E-22
    0.884102E-01   -0.767412E-07    0.187962E-22
    0.884102E-01   -0.671546E-07    0.164481E-22
    0.884103E-01   -0.563711E-07    0.138069E-22
    0.884103E-01   -0.490782E-07    0.120207E-22
    0.884104E-01   -0.454704E-07    0.111370E-22
    0.884104E-01   -0.384124E-07    0.940834E-23
    0.884105E-01   -0.297213E-07    0.727962E-23
    0.884105E-01   -0.267828E-07    0.655989E-23
    0.884105E-01   -0.242483E-07    0.593911E-23
    0.884100E-01   -0.996109E-07    0.243976E-22
    0.884101E-01   -0.900009E-07    0.220439E-22
    0.884102E-01   -0.810999E-07    0.198638E-22
    0.884102E-01   -0.715810E-07    0.175323E-22
    0.884103E-01   -0.605287E-07    0.148252E-22
    0.884103E-01   -0.524335E-07    0.128425E-22
    0.884104E-01   -0.488710E-07    0.119699E-22
    0.884104E-01   -0.418526E-07    0.102509E-22
    0.884105E-01   -0.325872E-07    0.798157E-23
    0.884105E-01   -0.292817E-07    0.717194E-23
    0.884105E-01   -0.260691E-07    0.638509E-23
    0.884100E-01   -0.105582E-06    0.258600E-22
    0.884101E-01   -0.950796E-07    0.232878E-22
    0.884102E-01   -0.853814E-07    0.209124E-22
    0.884102E-01   -0.758987E-07    0.185898E-22
    0.884103E-01   -0.645235E-07    0.158037E-22
    0.884103E-01   -0.556638E-07    0.136337E-22
    0.884104E-01   -0.521994E-07    0.127852E-22
    0.884104E-01   -0.451939E-07    0.110693E-22
    0.884105E-01   -0.352824E-07    0.864169E-23
    0.884105E-01   -0.316994E-07    0.776411E-23
    0.884105E-01   -0.278571E-07    0.682301E-23
    0.884100E-01   -0.111381E-06    0.272804E-22
    0.884101E-01   -0.100034E-06    0.245013E-22
    0.884102E-01   -0.895883E-07    0.219428E-22
    0.884102E-01   -0.801291E-07    0.196260E-22
    0.884103E-01   -0.683714E-07    0.167462E-22
    0.884103E-01   -0.587823E-07    0.143975E-22
    0.884104E-01   -0.554755E-07    0.135876E-22
    0.884104E-01   -0.484086E-07    0.118567E-22
    0.884105E-01   -0.377900E-07    0.925587E-23
    0.884105E-01   -0.340184E-07    0.833211E-23
    0.884105E-01   -0.296281E-07    0.725679E-23
    0.884100E-01   -0.117027E-06    0.286633E-22
    0.884101E-01   -0.104863E-06    0.256841E-22
    0.884102E-01   -0.937464E-07    0.229612E-22
    0.884102E-01   -0.843250E-07    0.206537E-22
    0.884103E-01   -0.720645E-07    0.176507E-22
    0.884103E-01   -0.617507E-07    0.151246E-22
    0.884104E-01   -0.587102E-07    0.143799E-22
    0.884104E-01   -0.514742E-07    0.126075E-22
    0.884105E-01   -0.400598E-07    0.981183E-23
    0.884105E-01   -0.362746E-07    0.888471E-23
    0.884105E-01   -0.314411E-07    0.770085E-23
    0.884100E-01   -0.122506E-06    0.300052E-22
    0.884101E-01   -0.109580E-06    0.268394E-22
    0.884102E-01   -0.978414E-07    0.239642E-22
    0.884102E-01   -0.884506E-07    0.216641E-22
    0.884103E-01   -0.755319E-07    0.185000E-22
    0.884103E-01   -0.645006E-07    0.157981E-22
    0.884104E-01   -0.620068E-07    0.151873E-22
    0.884104E-01   -0.545070E-07    0.133504E-22
    0.884105E-01   -0.421069E-07    0.103132E-22
    0.884105E-01   -0.385648E-07    0.944565E-23
    0.884105E-01   -0.333308E-07    0.816369E-23
    0.884100E-01   -0.127304E-06    0.311804E-22
    0.884101E-01   -0.105321E-06    0.257962E-22
    0.884102E-01   -0.101927E-06    0.249648E-22
    0.884102E-01   -0.909729E-07    0.222819E-22
    0.884103E-01   -0.745309E-07    0.182548E-22
    0.884103E-01   -0.726721E-07    0.177995E-22
    0.884104E-01   -0.582040E-07    0.142559E-22
    0.884104E-01   -0.572008E-07    0.140101E-22
    0.884105E-01   -0.475273E-07    0.116408E-22
    0.884105E-01   -0.341496E-07    0.836425E-23
    0.884105E-01   -0.379527E-07    0.929572E-23
</DataArray>
</PointData>
<CellData>
<DataArray Name="DP" type="Float64" format="ascii" NumberOfComponents="1">
      0.000000E+0000
      0.000000E+0000
      0.000000E+0000
      0.000000E+0000
      0.000000E+0000
      0.000000E+0000
      0.000000E+0000
      0.000000E+0000
      0.000000E+0000
      0.000000E+0000
      0.000000E+0000
      0.000000E+0000
      0.000000E+0000
      0.000000E+0000
      0.000000E+0000
      0.000000E+0000
      0.000000E+0000
      0.000000E+0000
      0.000000E+0000
      0.000000E+0000
      0.000000E+0000
      0.000000E+0000
      0.000000E+0000
      0.000000E+0000
      0.000000E+0000
      0.000000E+0000
      0.000000E+0000
      0.000000E+0000
      0.000000E+0000
      0.000000E+0000
      0.000000E+0000
      0.000000E+0000
      0.000000E+0000
      0.000000E+0000
      0.000000E+0000
      0.000000E+0000
      0.000000E+0000
      0.000000E+0000
      0.000000E+0000
      0.000000E+0000
      0.000000E+0000
      0.000000E+0000
      0.000000E+0000
      0.000000E+0000
      0.000000E+0000
      0.000000E+0000
      0.000000E+0000
      0.000000E+0000
      0.000000E+0000
      0.000000E+0000
      0.000000E+0000
      0.000000E+0000
      0.000000E+0000
      0.000000E+0000
      0.000000E+0000
      0.000000E+0000
      0.000000E+0000
      0.000000E+0000
      0.000000E+0000
      0.000000E+0000
      0.000000E+0000
      0.000000E+0000
      0.000000E+0000
      0.000000E+0000
      0.000000E+0000
      0.000000E+0000
      0.000000E+0000
      0.000000E+0000
      0.000000E+0000
      0.000000E+0000
      0.000000E+0000
      0.000000E+0000
      0.000000E+0000
      0.000000E+0000
      0.000000E+0000
      0.000000E+0000
      0.000000E+0000
      0.000000E+0000
      0.000000E+0000
      0.000000E+0000
      0.000000E+0000
      0.000000E+0000
      0.000000E+0000
      0.000000E+0000
      0.000000E+0000
      0.000000E+0000
      0.000000E+0000
      0.000000E+0000
      0.000000E+0000
      0.000000E+0000
      0.000000E+0000
      0.000000E+0000
      0.000000E+0000
      0.000000E+0000
      0.000000E+0000
      0.000000E+0000
      0.000000E+0000
      0.000000E+0000
      0.000000E+0000
      0.000000E+0000
</DataArray>
<DataArray Name="P" type="Float64" format="ascii" NumberOfComponents="1">
     -0.830601E+0000
     -0.848150E+0000
     -0.865875E+0000
     -0.883775E+0000
     -0.901856E+0000
     -0.920117E+0000
     -0.938562E+0000
     -0.957192E+0000
     -0.976006E+0000
     -0.995012E+0000
     -0.830601E+0000
     -0.848150E+0000
     -0.865875E+0000
     -0.883776E+0000
     -0.901856E+0000
     -0.920117E+0000
     -0.938562E+0000
     -0.957192E+0000
     -0.976006E+0000
     -0.995012E+0000
     -0.830602E+0000
     -0.848150E+0000
     -0.865875E+0000
     -0.883776E+0000
     -0.901856E+0000
     -0.920118E+0000
     -0.938562E+0000
     -0.957192E+0000
     -0.976006E+0000
     -0.995012E+0000
     -0.830602E+0000
     -0.848150E+0000
     -0.865875E+0000
     -0.883776E+0000
     -0.901857E+0000
     -0.920118E+0000
     -0.938562E+0000
     -0.957192E+0000
     -0.976006E+0000
     -0.995012E+0000
     -0.830602E+0000
     -0.848150E+0000
     -0.865875E+0000
     -0.883776E+0000
     -0.901857E+0000
     -0.920118E+0000
     -0.938562E+0000
     -0.957192E+0000
     -0.976007E+0000
     -0.995012E+0000
     -0.830602E+0000
     -0.848150E+0000
     -0.865875E+0000
     -0.883776E+0000
     -0.901857E+0000
     -0.920118E+0000
     -0.938562E+0000
     -0.957192E+0000
     -0.976007E+0000
     -0.995012E+0000
     -0.830602E+0000
     -0.848150E+0000
     -0.865875E+0000
     -0.883776E+0000
     -0.901857E+0000
     -0.920118E+0000
     -0.938562E+0000
     -0.957192E+0000
     -0.976007E+0000
     -0.995012E+0000
     -0.830602E+0000
     -0.848150E+0000
     -0.865875E+0000
     -0.883776E+0000
     -0.901857E+0000
     -0.920118E+0000
     -0.938562E+0000
     -0.957192E+0000
     -0.976007E+0000
     -0.995012E+0000
     -0.830602E+0000
     -0.848150E+0000
     -0.865875E+0000
     -0.883776E+0000
     -0.901857E+0000
     -0.920118E+0000
     -0.938562E+0000
     -0.957192E+0000
     -0.976007E+0000
     -0.995012E+0000
     -0.830602E+0000
     -0.848150E+0000
     -0.865876E+0000
     -0.883776E+0000
     -0.901857E+0000
     -0.920118E+0000
     -0.938562E+0000
     -0.957192E+0000
     -0.976007E+0000
     -0.995012E+0000
</DataArray>
<DataArray Name="RHO" type="Float64" format="ascii" NumberOfComponents="1">
      0.117197E+0001
      0.117197E+0001
      0.117197E+0001
      0.117197E+0001
      0.117197E+0001
      0.117197E+0001
      0.117197E+0001
      0.117197E+0001
      0.117197E+0001
      0.117197E+0001
      0.117197E+0001
      0.117197E+0001
      0.117197E+0001
      0.117197E+0001
      0.117197E+0001
      0.117197E+0001
      0.117197E+0001
      0.117197E+0001
      0.117197E+0001
      0.117197E+0001
      0.117197E+0001
      0.117197E+0001
      0.117197E+0001
      0.117197E+0001
      0.117197E+0001
      0.117197E+0001
      0.117197E+0001
      0.117197E+0001
      0.117197E+0001
      0.117197E+0001
      0.117197E+0001
      0.117197E+0001
      0.117197E+0001
      0.117197E+0001
      0.117197E+0001
      0.117197E+0001
      0.117197E+0001
      0.117197E+0001
      0.117197E+0001
      0.117197E+0001
      0.117197E+0001
      0.117197E+0001
      0.117197E+0001
      0.117197E+0001
      0.117197E+0001
      0.117197E+0001
      0.117197E+0001
      0.117197E+0001
      0.117197E+0001
      0.117197E+0001
      0.117197E+0001
      0.117197E+0001
      0.117197E+0001
      0.117197E+0001
      0.117197E+0001
      0.117197E+0001
      0.117197E+0001
      0.117197E+0001
      0.117197E+0001
      0.117197E+0001
      0.117197E+0001
      0.117197E+0001