<?xml version="1.0"?>
<VTKFile type="StructuredGrid" version="0.1" byte_order="LittleEndian">
<StructuredGrid WholeExtent="         190         200          70          80           0           1">
<Piece Extent="         190         200          70          80           0           1">
<Points>
<DataArray NumberOfComponents="3" type="Float64" format="ascii">
    0.142447E+00    0.226546E-01    0.000000E+00
    0.144124E+00    0.226546E-01    0.000000E+00
    0.145819E+00    0.226546E-01    0.000000E+00
    0.147530E+00    0.226546E-01    0.000000E+00
    0.149259E+00    0.226546E-01    0.000000E+00
    0.151005E+00    0.226546E-01    0.000000E+00
    0.152768E+00    0.226546E-01    0.000000E+00
    0.154549E+00    0.226546E-01    0.000000E+00
    0.156348E+00    0.226546E-01    0.000000E+00
    0.158165E+00    0.226546E-01    0.000000E+00
    0.160000E+00    0.226546E-01    0.000000E+00
    0.142447E+00    0.233450E-01    0.000000E+00
    0.144124E+00    0.233450E-01    0.000000E+00
    0.145819E+00    0.233450E-01    0.000000E+00
    0.147530E+00    0.233450E-01    0.000000E+00
    0.149259E+00    0.233450E-01    0.000000E+00
    0.151005E+00    0.233450E-01    0.000000E+00
    0.152768E+00    0.233450E-01    0.000000E+00
    0.154549E+00    0.233450E-01    0.000000E+00
    0.156348E+00    0.233450E-01    0.000000E+00
    0.158165E+00    0.233450E-01    0.000000E+00
    0.160000E+00    0.233450E-01    0.000000E+00
    0.142447E+00    0.240561E-01    0.000000E+00
    0.144124E+00    0.240561E-01    0.000000E+00
    0.145819E+00    0.240561E-01    0.000000E+00
    0.147530E+00    0.240561E-01    0.000000E+00
    0.149259E+00    0.240561E-01    0.000000E+00
    0.151005E+00    0.240561E-01    0.000000E+00
    0.152768E+00    0.240561E-01    0.000000E+00
    0.154549E+00    0.240561E-01    0.000000E+00
    0.156348E+00    0.240561E-01    0.000000E+00
    0.158165E+00    0.240561E-01    0.000000E+00
    0.160000E+00    0.240561E-01    0.000000E+00
    0.142447E+00    0.247885E-01    0.000000E+00
    0.144124E+00    0.247885E-01    0.000000E+00
    0.145819E+00    0.247885E-01    0.000000E+00
    0.147530E+00    0.247885E-01    0.000000E+00
    0.149259E+00    0.247885E-01    0.000000E+00
    0.151005E+00    0.247885E-01    0.000000E+00
    0.152768E+00    0.247885E-01    0.000000E+00
    0.154549E+00    0.247885E-01    0.000000E+00
    0.156348E+00    0.247885E-01    0.000000E+00
    0.158165E+00    0.247885E-01    0.000000E+00
    0.160000E+00    0.247885E-01    0.000000E+00
    0.142447E+00    0.255429E-01    0.000000E+00
    0.144124E+00    0.255429E-01    0.000000E+00
    0.145819E+00    0.255429E-01    0.000000E+00
    0.147530E+00    0.255429E-01    0.000000E+00
    0.149259E+00    0.255429E-01    0.000000E+00
    0.151005E+00    0.255429E-01    0.000000E+00
    0.152768E+00    0.255429E-01    0.000000E+00
    0.154549E+00    0.255429E-01    0.000000E+00
    0.156348E+00    0.255429E-01    0.000000E+00
    0.158165E+00    0.255429E-01    0.000000E+00
    0.160000E+00    0.255429E-01    0.000000E+00
    0.142447E+00    0.263200E-01    0.000000E+00
    0.144124E+00    0.263200E-01    0.000000E+00
    0.145819E+00    0.263200E-01    0.000000E+00
    0.147530E+00    0.263200E-01    0.000000E+00
    0.149259E+00    0.263200E-01    0.000000E+00
    0.151005E+00    0.263200E-01    0.000000E+00
    0.152768E+00    0.263200E-01    0.000000E+00
    0.154549E+00    0.263200E-01    0.000000E+00
    0.156348E+00    0.263200E-01    0.000000E+00
    0.158165E+00    0.263200E-01    0.000000E+00
    0.160000E+00    0.263200E-01    0.000000E+00
    0.142447E+00    0.271203E-01    0.000000E+00
    0.144124E+00    0.271203E-01    0.000000E+00
    0.145819E+00    0.271203E-01    0.000000E+00
    0.147530E+00    0.271203E-01    0.000000E+00
    0.149259E+00    0.271203E-01    0.000000E+00
    0.151005E+00    0.271203E-01    0.000000E+00
    0.152768E+00    0.271203E-01    0.000000E+00
    0.154549E+00    0.271203E-01    0.000000E+00
    0.156348E+00    0.271203E-01    0.000000E+00
    0.158165E+00    0.271203E-01    0.000000E+00
    0.160000E+00    0.271203E-01    0.000000E+00
    0.142447E+00    0.279447E-01    0.000000E+00
    0.144124E+00    0.279447E-01    0.000000E+00
    0.145819E+00    0.279447E-01    0.000000E+00
    0.147530E+00    0.279447E-01    0.000000E+00
    0.149259E+00    0.279447E-01    0.000000E+00
    0.151005E+00    0.279447E-01    0.000000E+00
    0.152768E+00    0.279447E-01    0.000000E+00
    0.154549E+00    0.279447E-01    0.000000E+00
    0.156348E+00    0.279447E-01    0.000000E+00
    0.158165E+00    0.279447E-01    0.000000E+00
    0.160000E+00    0.279447E-01    0.000000E+00
    0.142447E+00    0.287938E-01    0.000000E+00
    0.144124E+00    0.287938E-01    0.000000E+00
    0.145819E+00    0.287938E-01    0.000000E+00
    0.147530E+00    0.287938E-01    0.000000E+00
    0.149259E+00    0.287938E-01    0.000000E+00
    0.151005E+00    0.287938E-01    0.000000E+00
    0.152768E+00    0.287938E-01    0.000000E+00
    0.154549E+00    0.287938E-01    0.000000E+00
    0.156348E+00    0.287938E-01    0.000000E+00
    0.158165E+00    0.287938E-01    0.000000E+00
    0.160000E+00    0.287938E-01    0.000000E+00
    0.142447E+00    0.296683E-01    0.000000E+00
    0.144124E+00    0.296683E-01    0.000000E+00
    0.145819E+00    0.296683E-01    0.000000E+00
    0.147530E+00    0.296683E-01    0.000000E+00
    0.149259E+00    0.296683E-01    0.000000E+00
    0.151005E+00    0.296683E-01    0.000000E+00
    0.152768E+00    0.296683E-01    0.000000E+00
    0.154549E+00    0.296683E-01    0.000000E+00
    0.156348E+00    0.296683E-01    0.000000E+00
    0.158165E+00    0.296683E-01    0.000000E+00
    0.160000E+00    0.296683E-01    0.000000E+00
    0.142447E+00    0.305691E-01    0.000000E+00
    0.144124E+00    0.305691E-01    0.000000E+00
    0.145819E+00    0.305691E-01    0.000000E+00
    0.147530E+00    0.305691E-01    0.000000E+00
    0.149259E+00    0.305691E-01    0.000000E+00
    0.151005E+00    0.305691E-01    0.000000E+00
    0.152768E+00    0.305691E-01    0.000000E+00
    0.154549E+00    0.305691E-01    0.000000E+00
    0.156348E+00    0.305691E-01    0.000000E+00
    0.158165E+00    0.305691E-01    0.000000E+00
    0.160000E+00    0.305691E-01    0.000000E+00
    0.142447E+00    0.226546E-01    0.160000E-02
    0.144124E+00    0.226546E-01    0.160000E-02
    0.145819E+00    0.226546E-01    0.160000E-02
    0.147530E+00    0.226546E-01    0.160000E-02
    0.149259E+00    0.226546E-01    0.160000E-02
    0.151005E+00    0.226546E-01    0.160000E-02
    0.152768E+00    0.226546E-01    0.160000E-02
    0.154549E+00    0.226546E-01    0.160000E-02
    0.156348E+00    0.226546E-01    0.160000E-02
    0.158165E+00    0.226546E-01    0.160000E-02
    0.160000E+00    0.226546E-01    0.160000E-02
    0.142447E+00    0.233450E-01    0.160000E-02
    0.144124E+00    0.233450E-01    0.160000E-02
    0.145819E+00    0.233450E-01    0.160000E-02
    0.147530E+00    0.233450E-01    0.160000E-02
    0.149259E+00    0.233450E-01    0.160000E-02
    0.151005E+00    0.233450E-01    0.160000E-02
    0.152768E+00    0.233450E-01    0.160000E-02
    0.154549E+00    0.233450E-01    0.160000E-02
    0.156348E+00    0.233450E-01    0.160000E-02
    0.158165E+00    0.233450E-01    0.160000E-02
    0.160000E+00    0.233450E-01    0.160000E-02
    0.142447E+00    0.240561E-01    0.160000E-02
    0.144124E+00    0.240561E-01    0.160000E-02
    0.145819E+00    0.240561E-01    0.160000E-02
    0.147530E+00    0.240561E-01    0.160000E-02
    0.149259E+00    0.240561E-01    0.160000E-02
    0.151005E+00    0.240561E-01    0.160000E-02
    0.152768E+00    0.240561E-01    0.160000E-02
    0.154549E+00    0.240561E-01    0.160000E-02
    0.156348E+00    0.240561E-01    0.160000E-02
    0.158165E+00    0.240561E-01    0.160000E-02
    0.160000E+00    0.240561E-01    0.160000E-02
    0.142447E+00    0.247885E-01    0.160000E-02
    0.144124E+00    0.247885E-01    0.160000E-02
    0.145819E+00    0.247885E-01    0.160000E-02
    0.147530E+00    0.247885E-01    0.160000E-02
    0.149259E+00    0.247885E-01    0.160000E-02
    0.151005E+00    0.247885E-01    0.160000E-02
    0.152768E+00    0.247885E-01    0.160000E-02
    0.154549E+00    0.247885E-01    0.160000E-02
    0.156348E+00    0.247885E-01    0.160000E-02
    0.158165E+00    0.247885E-01    0.160000E-02
    0.160000E+00    0.247885E-01    0.160000E-02
    0.142447E+00    0.255429E-01    0.160000E-02
    0.144124E+00    0.255429E-01    0.160000E-02
    0.145819E+00    0.255429E-01    0.160000E-02
    0.147530E+00    0.255429E-01    0.160000E-02
    0.149259E+00    0.255429E-01    0.160000E-02
    0.151005E+00    0.255429E-01    0.160000E-02
    0.152768E+00    0.255429E-01    0.160000E-02
    0.154549E+00    0.255429E-01    0.160000E-02
    0.156348E+00    0.255429E-01    0.160000E-02
    0.158165E+00    0.255429E-01    0.160000E-02
    0.160000E+00    0.255429E-01    0.160000E-02
    0.142447E+00    0.263200E-01    0.160000E-02
    0.144124E+00    0.263200E-01    0.160000E-02
    0.145819E+00    0.263200E-01    0.160000E-02
    0.147530E+00    0.263200E-01    0.160000E-02
    0.149259E+00    0.263200E-01    0.160000E-02
    0.151005E+00    0.263200E-01    0.160000E-02
    0.152768E+00    0.263200E-01    0.160000E-02
    0.154549E+00    0.263200E-01    0.160000E-02
    0.156348E+00    0.263200E-01    0.160000E-02
    0.158165E+00    0.263200E-01    0.160000E-02
    0.160000E+00    0.263200E-01    0.160000E-02
    0.142447E+00    0.271203E-01    0.160000E-02
    0.144124E+00    0.271203E-01    0.160000E-02
    0.145819E+00    0.271203E-01    0.160000E-02
    0.147530E+00    0.271203E-01    0.160000E-02
    0.149259E+00    0.271203E-01    0.160000E-02
    0.151005E+00    0.271203E-01    0.160000E-02
    0.152768E+00    0.271203E-01    0.160000E-02
    0.154549E+00    0.271203E-01    0.160000E-02
    0.156348E+00    0.271203E-01    0.160000E-02
    0.158165E+00    0.271203E-01    0.160000E-02
    0.160000E+00    0.271203E-01    0.160000E-02
    0.142447E+00    0.279447E-01    0.160000E-02
    0.144124E+00    0.279447E-01    0.160000E-02
    0.145819E+00    0.279447E-01    0.160000E-02
    0.147530E+00    0.279447E-01    0.160000E-02
    0.149259E+00    0.279447E-01    0.160000E-02
    0.151005E+00    0.279447E-01    0.160000E-02
    0.152768E+00    0.279447E-01    0.160000E-02
    0.154549E+00    0.279447E-01    0.160000E-02
    0.156348E+00    0.279447E-01    0.160000E-02
    0.158165E+00    0.279447E-01    0.160000E-02
    0.160000E+00    0.279447E-01    0.160000E-02
    0.142447E+00    0.287938E-01    0.160000E-02
    0.144124E+00    0.287938E-01    0.160000E-02
    0.145819E+00    0.287938E-01    0.160000E-02
    0.147530E+00    0.287938E-01    0.160000E-02
    0.149259E+00    0.287938E-01    0.160000E-02
    0.151005E+00    0.287938E-01    0.160000E-02
    0.152768E+00    0.287938E-01    0.160000E-02
    0.154549E+00    0.287938E-01    0.160000E-02
    0.156348E+00    0.287938E-01    0.160000E-02
    0.158165E+00    0.287938E-01    0.160000E-02
    0.160000E+00    0.287938E-01    0.160000E-02
    0.142447E+00    0.296683E-01    0.160000E-02
    0.144124E+00    0.296683E-01    0.160000E-02
    0.145819E+00    0.296683E-01    0.160000E-02
    0.147530E+00    0.296683E-01    0.160000E-02
    0.149259E+00    0.296683E-01    0.160000E-02
    0.151005E+00    0.296683E-01    0.160000E-02
    0.152768E+00    0.296683E-01    0.160000E-02
    0.154549E+00    0.296683E-01    0.160000E-02
    0.156348E+00    0.296683E-01    0.160000E-02
    0.158165E+00    0.296683E-01    0.160000E-02
    0.160000E+00    0.296683E-01    0.160000E-02
    0.142447E+00    0.305691E-01    0.160000E-02
    0.144124E+00    0.305691E-01    0.160000E-02
    0.145819E+00    0.305691E-01    0.160000E-02
    0.147530E+00    0.305691E-01    0.160000E-02
    0.149259E+00    0.305691E-01    0.160000E-02
    0.151005E+00    0.305691E-01    0.160000E-02
    0.152768E+00    0.305691E-01    0.160000E-02
    0.154549E+00    0.305691E-01    0.160000E-02
    0.156348E+00    0.305691E-01    0.160000E-02
    0.158165E+00    0.305691E-01    0.160000E-02
    0.160000E+00    0.305691E-01    0.160000E-02
</DataArray>
</Points>
<PointData>
<DataArray Name="Velocity" type="Float64" format="ascii" NumberOfComponents="3">
    0.884060E-01   -0.128022E-06    0.000000E+00
    0.884060E-01   -0.111178E-06    0.000000E+00
    0.884061E-01   -0.935800E-07    0.000000E+00
    0.884061E-01   -0.773819E-07    0.000000E+00
    0.884061E-01   -0.626953E-07    0.000000E+00
    0.884061E-01   -0.486387E-07    0.000000E+00
    0.884061E-01   -0.360994E-07    0.000000E+00
    0.884061E-01   -0.232202E-07    0.000000E+00
    0.884061E-01   -0.121481E-07    0.000000E+00
    0.884061E-01    0.896920E-09    0.000000E+00
    0.884061E-01    0.105422E-07    0.000000E+00
    0.884060E-01   -0.129058E-06    0.000000E+00
    0.884061E-01   -0.112199E-06    0.000000E+00
    0.884061E-01   -0.946290E-07    0.000000E+00
    0.884061E-01   -0.784728E-07    0.000000E+00
    0.884061E-01   -0.639170E-07    0.000000E+00
    0.884061E-01   -0.499180E-07    0.000000E+00
    0.884061E-01   -0.375877E-07    0.000000E+00
    0.884061E-01   -0.247567E-07    0.000000E+00
    0.884061E-01   -0.139222E-07    0.000000E+00
    0.884061E-01   -0.129575E-08    0.000000E+00
    0.884061E-01    0.840797E-08    0.000000E+00
    0.884060E-01   -0.130333E-06    0.000000E+00
    0.884061E-01   -0.113407E-06    0.000000E+00
    0.884061E-01   -0.957527E-07    0.000000E+00
    0.884061E-01   -0.794984E-07    0.000000E+00
    0.884061E-01   -0.648518E-07    0.000000E+00
    0.884061E-01   -0.507510E-07    0.000000E+00
    0.884061E-01   -0.383480E-07    0.000000E+00
    0.884061E-01   -0.254500E-07    0.000000E+00
    0.884061E-01   -0.145516E-07    0.000000E+00
    0.884061E-01   -0.189718E-08    0.000000E+00
    0.884061E-01    0.783264E-08    0.000000E+00
    0.884061E-01   -0.131480E-06    0.000000E+00
    0.884061E-01   -0.114502E-06    0.000000E+00
    0.884061E-01   -0.967785E-07    0.000000E+00
    0.884061E-01   -0.804517E-07    0.000000E+00
    0.884061E-01   -0.657229E-07    0.000000E+00
    0.884061E-01   -0.515553E-07    0.000000E+00
    0.884061E-01   -0.390741E-07    0.000000E+00
    0.884061E-01   -0.261389E-07    0.000000E+00
    0.884061E-01   -0.151832E-07    0.000000E+00
    0.884061E-01   -0.244853E-08    0.000000E+00
    0.884061E-01    0.728064E-08    0.000000E+00
    0.884061E-01   -0.132437E-06    0.000000E+00
    0.884061E-01   -0.115428E-06    0.000000E+00
    0.884061E-01   -0.976586E-07    0.000000E+00
    0.884061E-01   -0.812841E-07    0.000000E+00
    0.884061E-01   -0.664934E-07    0.000000E+00
    0.884061E-01   -0.522831E-07    0.000000E+00
    0.884061E-01   -0.397405E-07    0.000000E+00
    0.884061E-01   -0.267775E-07    0.000000E+00
    0.884061E-01   -0.157852E-07    0.000000E+00
    0.884061E-01   -0.297593E-08    0.000000E+00
    0.884061E-01    0.675740E-08    0.000000E+00
    0.884061E-01   -0.133138E-06    0.000000E+00
    0.884061E-01   -0.116127E-06    0.000000E+00
    0.884061E-01   -0.983419E-07    0.000000E+00
    0.884061E-01   -0.819491E-07    0.000000E+00
    0.884061E-01   -0.671247E-07    0.000000E+00
    0.884061E-01   -0.528960E-07    0.000000E+00
    0.884061E-01   -0.403181E-07    0.000000E+00
    0.884061E-01   -0.273403E-07    0.000000E+00
    0.884061E-01   -0.163324E-07    0.000000E+00
    0.884061E-01   -0.347254E-08    0.000000E+00
    0.884061E-01    0.626521E-08    0.000000E+00
    0.884061E-01   -0.133521E-06    0.000000E+00
    0.884061E-01   -0.116541E-06    0.000000E+00
    0.884061E-01   -0.987790E-07    0.000000E+00
    0.884061E-01   -0.824032E-07    0.000000E+00
    0.884061E-01   -0.675789E-07    0.000000E+00
    0.884061E-01   -0.533616E-07    0.000000E+00
    0.884061E-01   -0.407779E-07    0.000000E+00
    0.884061E-01   -0.278076E-07    0.000000E+00
    0.884061E-01   -0.168063E-07    0.000000E+00
    0.884061E-01   -0.392466E-08    0.000000E+00
    0.884061E-01    0.580518E-08    0.000000E+00
    0.884061E-01   -0.133522E-06    0.000000E+00
    0.884061E-01   -0.116616E-06    0.000000E+00
    0.884061E-01   -0.989212E-07    0.000000E+00
    0.884061E-01   -0.826043E-07    0.000000E+00
    0.884061E-01   -0.678183E-07    0.000000E+00
    0.884061E-01   -0.536494E-07    0.000000E+00
    0.884061E-01   -0.410910E-07    0.000000E+00
    0.884061E-01   -0.281605E-07    0.000000E+00
    0.884061E-01   -0.171915E-07    0.000000E+00
    0.884061E-01   -0.431839E-08    0.000000E+00
    0.884061E-01    0.537792E-08    0.000000E+00
    0.884061E-01   -0.133071E-06    0.000000E+00
    0.884061E-01   -0.116289E-06    0.000000E+00
    0.884061E-01   -0.987139E-07    0.000000E+00
    0.884061E-01   -0.825055E-07    0.000000E+00
    0.884061E-01   -0.678012E-07    0.000000E+00
    0.884061E-01   -0.537258E-07    0.000000E+00
    0.884061E-01   -0.412260E-07    0.000000E+00
    0.884061E-01   -0.283788E-07    0.000000E+00
    0.884061E-01   -0.174713E-07    0.000000E+00
    0.884061E-01   -0.463848E-08    0.000000E+00
    0.884061E-01    0.498394E-08    0.000000E+00
    0.884061E-01   -0.132081E-06    0.000000E+00
    0.884061E-01   -0.115481E-06    0.000000E+00
    0.884061E-01   -0.980897E-07    0.000000E+00
    0.884061E-01   -0.820472E-07    0.000000E+00
    0.884061E-01   -0.674773E-07    0.000000E+00
    0.884061E-01   -0.535466E-07    0.000000E+00
    0.884061E-01   -0.411459E-07    0.000000E+00
    0.884061E-01   -0.284376E-07    0.000000E+00
    0.884061E-01   -0.176202E-07    0.000000E+00
    0.884061E-01   -0.486947E-08    0.000000E+00
    0.884061E-01    0.462384E-08    0.000000E+00
    0.884061E-01   -0.130576E-06    0.000000E+00
    0.884061E-01   -0.114241E-06    0.000000E+00
    0.884061E-01   -0.971196E-07    0.000000E+00
    0.884061E-01   -0.813300E-07    0.000000E+00
    0.884061E-01   -0.669960E-07    0.000000E+00
    0.884061E-01   -0.532886E-07    0.000000E+00
    0.884061E-01   -0.410887E-07    0.000000E+00
    0.884061E-01   -0.286048E-07    0.000000E+00
    0.884061E-01   -0.179481E-07    0.000000E+00
    0.884061E-01   -0.540529E-08    0.000000E+00
    0.884061E-01    0.390599E-08    0.000000E+00
    0.884060E-01   -0.130574E-06    0.319814E-22
    0.884060E-01   -0.111178E-06    0.272308E-22
    0.884061E-01   -0.935800E-07    0.229205E-22
    0.884061E-01   -0.773819E-07    0.189531E-22
    0.884061E-01   -0.626953E-07    0.153559E-22
    0.884061E-01   -0.486387E-07    0.119130E-22
    0.884061E-01   -0.360994E-07    0.884181E-23
    0.884061E-01   -0.232202E-07    0.568731E-23
    0.884061E-01   -0.121481E-07    0.297543E-23
    0.884061E-01    0.896920E-09   -0.219682E-24
    0.884061E-01    0.105422E-07   -0.258209E-23
    0.884060E-01   -0.131612E-06    0.322357E-22
    0.884061E-01   -0.112199E-06    0.274807E-22
    0.884061E-01   -0.946290E-07    0.231774E-22
    0.884061E-01   -0.784728E-07    0.192203E-22
    0.884061E-01   -0.639170E-07    0.156551E-22
    0.884061E-01   -0.499180E-07    0.122264E-22
    0.884061E-01   -0.375877E-07    0.920634E-23
    0.884061E-01   -0.247567E-07    0.606365E-23
    0.884061E-01   -0.139222E-07    0.340995E-23
    0.884061E-01   -0.129575E-08    0.317367E-24
    0.884061E-01    0.840797E-08   -0.205936E-23
    0.884060E-01   -0.132896E-06    0.325501E-22
    0.884061E-01   -0.113407E-06    0.277766E-22
    0.884061E-01   -0.957527E-07    0.234526E-22
    0.884061E-01   -0.794984E-07    0.194715E-22
    0.884061E-01   -0.648518E-07    0.158841E-22
    0.884061E-01   -0.507510E-07    0.124304E-22
    0.884061E-01   -0.383480E-07    0.939255E-23
    0.884061E-01   -0.254500E-07    0.623346E-23
    0.884061E-01   -0.145516E-07    0.356411E-23
    0.884061E-01   -0.189718E-08    0.464674E-24
    0.884061E-01    0.783264E-08   -0.191844E-23
    0.884061E-01   -0.134050E-06    0.328327E-22
    0.884061E-01   -0.114502E-06    0.280448E-22
    0.884061E-01   -0.967785E-07    0.237039E-22
    0.884061E-01   -0.804517E-07    0.197050E-22
    0.884061E-01   -0.657229E-07    0.160975E-22
    0.884061E-01   -0.515553E-07    0.126274E-22
    0.884061E-01   -0.390741E-07    0.957039E-23
    0.884061E-01   -0.261389E-07    0.640218E-23
    0.884061E-01   -0.151832E-07    0.371880E-23
    0.884061E-01   -0.244853E-08    0.599717E-24
    0.884061E-01    0.728064E-08   -0.178324E-23
    0.884061E-01   -0.135011E-06    0.330681E-22
    0.884061E-01   -0.115428E-06    0.282717E-22
    0.884061E-01   -0.976586E-07    0.239195E-22
    0.884061E-01   -0.812841E-07    0.199089E-22
    0.884061E-01   -0.664934E-07    0.162862E-22
    0.884061E-01   -0.522831E-07    0.128057E-22
    0.884061E-01   -0.397405E-07    0.973361E-23
    0.884061E-01   -0.267775E-07    0.655860E-23
    0.884061E-01   -0.157852E-07    0.386627E-23
    0.884061E-01   -0.297593E-08    0.728892E-24
    0.884061E-01    0.675740E-08   -0.165509E-23
    0.884061E-01   -0.135712E-06    0.332399E-22
    0.884061E-01   -0.116127E-06    0.284428E-22
    0.884061E-01   -0.983419E-07    0.240868E-22
    0.884061E-01   -0.819491E-07    0.200717E-22
    0.884061E-01   -0.671247E-07    0.164408E-22
    0.884061E-01   -0.528960E-07    0.129558E-22
    0.884061E-01   -0.403181E-07    0.987509E-23
    0.884061E-01   -0.273403E-07    0.669644E-23
    0.884061E-01   -0.163324E-07    0.400030E-23
    0.884061E-01   -0.347254E-08    0.850526E-24
    0.884061E-01    0.626521E-08   -0.153454E-23
    0.884061E-01   -0.136089E-06    0.333323E-22
    0.884061E-01   -0.116541E-06    0.285443E-22
    0.884061E-01   -0.987790E-07    0.241939E-22
    0.884061E-01   -0.824032E-07    0.201830E-22
    0.884061E-01   -0.675789E-07    0.165521E-22
    0.884061E-01   -0.533616E-07    0.130698E-22
    0.884061E-01   -0.407779E-07    0.998770E-23
    0.884061E-01   -0.278076E-07    0.681089E-23
    0.884061E-01   -0.168063E-07    0.411635E-23
    0.884061E-01   -0.392466E-08    0.961265E-24
    0.884061E-01    0.580518E-08   -0.142186E-23
    0.884061E-01   -0.136079E-06    0.333297E-22
    0.884061E-01   -0.116616E-06    0.285627E-22
    0.884061E-01   -0.989212E-07    0.242287E-22
    0.884061E-01   -0.826043E-07    0.202322E-22
    0.884061E-01   -0.678183E-07    0.166107E-22
    0.884061E-01   -0.536494E-07    0.131403E-22
    0.884061E-01   -0.410910E-07    0.100644E-22
    0.884061E-01   -0.281605E-07    0.689733E-23
    0.884061E-01   -0.171915E-07    0.421071E-23
    0.884061E-01   -0.431839E-08    0.105770E-23
    0.884061E-01    0.537792E-08   -0.131721E-23
    0.884061E-01   -0.135609E-06    0.332146E-22
    0.884061E-01   -0.116289E-06    0.284825E-22
    0.884061E-01   -0.987139E-07    0.241779E-22
    0.884061E-01   -0.825055E-07    0.202080E-22
    0.884061E-01   -0.678012E-07    0.166065E-22
    0.884061E-01   -0.537258E-07    0.131590E-22
    0.884061E-01   -0.412260E-07    0.100974E-22
    0.884061E-01   -0.283788E-07    0.695079E-23
    0.884061E-01   -0.174713E-07    0.427922E-23
    0.884061E-01   -0.463848E-08    0.113610E-23
    0.884061E-01    0.498394E-08   -0.122071E-23
    0.884061E-01   -0.134591E-06    0.329652E-22
    0.884061E-01   -0.115481E-06    0.282848E-22
    0.884061E-01   -0.980897E-07    0.240250E-22
    0.884061E-01   -0.820472E-07    0.200958E-22
    0.884061E-01   -0.674773E-07    0.165272E-22
    0.884061E-01   -0.535466E-07    0.131151E-22
    0.884061E-01   -0.411459E-07    0.100778E-22
    0.884061E-01   -0.284376E-07    0.696520E-23
    0.884061E-01   -0.176202E-07    0.431570E-23
    0.884061E-01   -0.486947E-08    0.119268E-23
    0.884061E-01    0.462384E-08   -0.113251E-23
    0.884061E-01   -0.133044E-06    0.325863E-22
    0.884061E-01   -0.114241E-06    0.279809E-22
    0.884061E-01   -0.971196E-07    0.237874E-22
    0.884061E-01   -0.813300E-07    0.199201E-22
    0.884061E-01   -0.669960E-07    0.164093E-22
    0.884061E-01   -0.532886E-07    0.130519E-22
    0.884061E-01   -0.410887E-07    0.100638E-22
    0.884061E-01   -0.286048E-07    0.700616E-23
    0.884061E-01   -0.179481E-07    0.439601E-23
    0.884061E-01   -0.540529E-08    0.132391E-23
    0.884061E-01    0.390599E-08   -0.956691E-24
</DataArray>
</PointData>
<CellData>
<DataArray Name="DP" type="Float64" format="ascii" NumberOfComponents="1">
      0.000000E+0000
      0.000000E+0000
      0.000000E+0000
      0.000000E+0000
      0.000000E+0000
      0.000000E+0000
      0.000000E+0000
      0.000000E+0000
      0.000000E+0000
      0.000000E+0000
      0.000000E+0000
      0.000000E+0000
      0.000000E+0000
      0.000000E+0000
      0.000000E+0000
      0.000000E+0000
      0.000000E+0000
      0.000000E+0000
      0.000000E+0000
      0.000000E+0000
      0.000000E+0000
      0.000000E+0000
      0.000000E+0000
      0.000000E+0000
      0.000000E+0000
      0.000000E+0000
      0.000000E+0000
      0.000000E+0000
      0.000000E+0000
      0.000000E+0000
      0.000000E+0000
      0.000000E+0000
      0.000000E+0000
      0.000000E+0000
      0.000000E+0000
      0.000000E+0000
      0.000000E+0000
      0.000000E+0000
      0.000000E+0000
      0.000000E+0000
      0.000000E+0000
      0.000000E+0000
      0.000000E+0000
      0.000000E+0000
      0.000000E+0000
      0.000000E+0000
      0.000000E+0000
      0.000000E+0000
      0.000000E+0000
      0.000000E+0000
      0.000000E+0000
      0.000000E+0000
      0.000000E+0000
      0.000000E+0000
      0.000000E+0000
      0.000000E+0000
      0.000000E+0000
      0.000000E+0000
      0.000000E+0000
      0.000000E+0000
      0.000000E+0000
      0.000000E+0000
      0.000000E+0000
      0.000000E+0000
      0.000000E+0000
      0.000000E+0000
      0.000000E+0000
      0.000000E+0000
      0.000000E+0000
      0.000000E+0000
      0.000000E+0000
      0.000000E+0000
      0.000000E+0000
      0.000000E+0000
      0.000000E+0000
      0.000000E+0000
      0.000000E+0000
      0.000000E+0000
      0.000000E+0000
      0.000000E+0000
      0.000000E+0000
      0.000000E+0000
      0.000000E+0000
      0.000000E+0000
      0.000000E+0000
      0.000000E+0000
      0.000000E+0000
      0.000000E+0000
      0.000000E+0000
      0.000000E+0000
      0.000000E+0000
      0.000000E+0000
      0.000000E+0000
      0.000000E+0000
      0.000000E+0000
      0.000000E+0000
      0.000000E+0000
      0.000000E+0000
      0.000000E+0000
      0.000000E+0000
</DataArray>
<DataArray Name="P" type="Float64" format="ascii" NumberOfComponents="1">
     -0.101422E+0001
     -0.103360E+0001
     -0.105318E+0001
     -0.107296E+0001
     -0.109293E+0001
     -0.111310E+0001
     -0.113348E+0001
     -0.115406E+0001
     -0.117484E+0001
     -0.119583E+0001
     -0.101422E+0001
     -0.103360E+0001
     -0.105318E+0001
     -0.107296E+0001
     -0.109293E+0001
     -0.111310E+0001
     -0.113348E+0001
     -0.115406E+0001
     -0.117484E+0001
     -0.119583E+0001
     -0.101422E+0001
     -0.103360E+0001
     -0.105318E+0001
     -0.107296E+0001
     -0.109293E+0001
     -0.111310E+0001
     -0.113348E+0001
     -0.115406E+0001
     -0.117484E+0001
     -0.119583E+0001
     -0.101422E+0001
     -0.103360E+0001
     -0.105318E+0001
     -0.107296E+0001
     -0.109293E+0001
     -0.111310E+0001
     -0.113348E+0001
     -0.115406E+0001
     -0.117484E+0001
     -0.119583E+0001
     -0.101422E+0001
     -0.103360E+0001
     -0.105318E+0001
     -0.107296E+0001
     -0.109293E+0001
     -0.111310E+0001
     -0.113348E+0001
     -0.115405E+0001
     -0.117484E+0001
     -0.119583E+0001
     -0.101422E+0001
     -0.103360E+0001
     -0.105318E+0001
     -0.107296E+0001
     -0.109293E+0001
     -0.111310E+0001
     -0.113348E+0001
     -0.115405E+0001
     -0.117484E+0001
     -0.119583E+0001
     -0.101422E+0001
     -0.103360E+0001
     -0.105318E+0001
     -0.107296E+0001
     -0.109293E+0001
     -0.111310E+0001
     -0.113348E+0001
     -0.115405E+0001
     -0.117484E+0001
     -0.119583E+0001
     -0.101422E+0001
     -0.103360E+0001
     -0.105318E+0001
     -0.107296E+0001
     -0.109293E+0001
     -0.111310E+0001
     -0.113348E+0001
     -0.115405E+0001
     -0.117484E+0001
     -0.119583E+0001
     -0.101422E+0001
     -0.103360E+0001
     -0.105318E+0001
     -0.107296E+0001
     -0.109293E+0001
     -0.111310E+0001
     -0.113348E+0001
     -0.115405E+0001
     -0.117484E+0001
     -0.119583E+0001
     -0.101422E+0001
     -0.103360E+0001
     -0.105318E+0001
     -0.107296E+0001
     -0.109293E+0001
     -0.111310E+0001
     -0.113348E+0001
     -0.115405E+0001
     -0.117484E+0001
     -0.119583E+0001
</DataArray>
<DataArray Name="RHO" type="Float64" format="ascii" NumberOfComponents="1">
      0.117197E+0001
      0.117197E+0001
      0.117197E+0001
      0.117197E+0001
      0.117197E+0001
      0.117197E+0001
      0.117197E+0001
      0.117197E+0001
      0.117197E+0001
      0.117197E+0001
      0.117197E+0001
      0.117197E+0001
      0.117197E+0001
      0.117197E+0001
      0.117197E+0001
      0.117197E+0001
      0.117197E+0001
      0.117197E+0001
      0.117197E+0001
      0.117197E+0001
      0.117197E+0001
      0.117197E+0001
      0.117197E+0001
      0.117197E+0001
      0.117197E+0001
      0.117197E+0001
      0.117197E+0001
      0.117197E+0001
      0.117197E+0001
      0.117197E+0001
      0.117197E+0001
      0.117197E+0001
      0.117197E+0001
      0.117197E+0001
      0.117197E+0001
      0.117197E+0001
      0.117197E+0001
      0.117197E+0001
      0.117197E+0001
      0.117197E+0001
      0.117197E+0001
      0.117197E+0001
      0.117197E+0001
      0.117197E+0001
      0.117197E+0001
      0.117197E+0001
      0.117197E+0001
      0.117197E+0001
      0.117197E+0001
      0.117197E+0001
      0.117197E+0001
      0.117197E+0001
      0.117197E+0001
      0.117197E+0001
      0.117197E+0001
      0.117197E+0001
      0.117197E+0001
      0.117197E+0001
      0.117197E+0001
      0.117197E+0001
      0.117197E+0001
      0.117197E+0001