<?xml version="1.0"?>
<VTKFile type="StructuredGrid" version="0.1" byte_order="LittleEndian">
<StructuredGrid WholeExtent="         130         140          20          30           0           1">
<Piece Extent="         130         140          20          30           0           1">
<Points>
<DataArray NumberOfComponents="3" type="Float64" format="ascii">
    0.670215E-01    0.480136E-02    0.000000E+00
    0.679450E-01    0.480136E-02    0.000000E+00
    0.688778E-01    0.480136E-02    0.000000E+00
    0.698199E-01    0.480136E-02    0.000000E+00
    0.707714E-01    0.480136E-02    0.000000E+00
    0.717325E-01    0.480136E-02    0.000000E+00
    0.727031E-01    0.480136E-02    0.000000E+00
    0.736835E-01    0.480136E-02    0.000000E+00
    0.746736E-01    0.480136E-02    0.000000E+00
    0.756737E-01    0.480136E-02    0.000000E+00
    0.766837E-01    0.480136E-02    0.000000E+00
    0.670215E-01    0.499423E-02    0.000000E+00
    0.679450E-01    0.499423E-02    0.000000E+00
    0.688778E-01    0.499423E-02    0.000000E+00
    0.698199E-01    0.499423E-02    0.000000E+00
    0.707714E-01    0.499423E-02    0.000000E+00
    0.717325E-01    0.499423E-02    0.000000E+00
    0.727031E-01    0.499423E-02    0.000000E+00
    0.736835E-01    0.499423E-02    0.000000E+00
    0.746736E-01    0.499423E-02    0.000000E+00
    0.756737E-01    0.499423E-02    0.000000E+00
    0.766837E-01    0.499423E-02    0.000000E+00
    0.670215E-01    0.518324E-02    0.000000E+00
    0.679450E-01    0.518324E-02    0.000000E+00
    0.688778E-01    0.518324E-02    0.000000E+00
    0.698199E-01    0.518324E-02    0.000000E+00
    0.707714E-01    0.518324E-02    0.000000E+00
    0.717325E-01    0.518324E-02    0.000000E+00
    0.727031E-01    0.518324E-02    0.000000E+00
    0.736835E-01    0.518324E-02    0.000000E+00
    0.746736E-01    0.518324E-02    0.000000E+00
    0.756737E-01    0.518324E-02    0.000000E+00
    0.766837E-01    0.518324E-02    0.000000E+00
    0.670215E-01    0.536847E-02    0.000000E+00
    0.679450E-01    0.536847E-02    0.000000E+00
    0.688778E-01    0.536847E-02    0.000000E+00
    0.698199E-01    0.536847E-02    0.000000E+00
    0.707714E-01    0.536847E-02    0.000000E+00
    0.717325E-01    0.536847E-02    0.000000E+00
    0.727031E-01    0.536847E-02    0.000000E+00
    0.736835E-01    0.536847E-02    0.000000E+00
    0.746736E-01    0.536847E-02    0.000000E+00
    0.756737E-01    0.536847E-02    0.000000E+00
    0.766837E-01    0.536847E-02    0.000000E+00
    0.670215E-01    0.555000E-02    0.000000E+00
    0.679450E-01    0.555000E-02    0.000000E+00
    0.688778E-01    0.555000E-02    0.000000E+00
    0.698199E-01    0.555000E-02    0.000000E+00
    0.707714E-01    0.555000E-02    0.000000E+00
    0.717325E-01    0.555000E-02    0.000000E+00
    0.727031E-01    0.555000E-02    0.000000E+00
    0.736835E-01    0.555000E-02    0.000000E+00
    0.746736E-01    0.555000E-02    0.000000E+00
    0.756737E-01    0.555000E-02    0.000000E+00
    0.766837E-01    0.555000E-02    0.000000E+00
    0.670215E-01    0.572725E-02    0.000000E+00
    0.679450E-01    0.572725E-02    0.000000E+00
    0.688778E-01    0.572725E-02    0.000000E+00
    0.698199E-01    0.572725E-02    0.000000E+00
    0.707714E-01    0.572725E-02    0.000000E+00
    0.717325E-01    0.572725E-02    0.000000E+00
    0.727031E-01    0.572725E-02    0.000000E+00
    0.736835E-01    0.572725E-02    0.000000E+00
    0.746736E-01    0.572725E-02    0.000000E+00
    0.756737E-01    0.572725E-02    0.000000E+00
    0.766837E-01    0.572725E-02    0.000000E+00
    0.670215E-01    0.590981E-02    0.000000E+00
    0.679450E-01    0.590981E-02    0.000000E+00
    0.688778E-01    0.590981E-02    0.000000E+00
    0.698199E-01    0.590981E-02    0.000000E+00
    0.707714E-01    0.590981E-02    0.000000E+00
    0.717325E-01    0.590981E-02    0.000000E+00
    0.727031E-01    0.590981E-02    0.000000E+00
    0.736835E-01    0.590981E-02    0.000000E+00
    0.746736E-01    0.590981E-02    0.000000E+00
    0.756737E-01    0.590981E-02    0.000000E+00
    0.766837E-01    0.590981E-02    0.000000E+00
    0.670215E-01    0.609785E-02    0.000000E+00
    0.679450E-01    0.609785E-02    0.000000E+00
    0.688778E-01    0.609785E-02    0.000000E+00
    0.698199E-01    0.609785E-02    0.000000E+00
    0.707714E-01    0.609785E-02    0.000000E+00
    0.717325E-01    0.609785E-02    0.000000E+00
    0.727031E-01    0.609785E-02    0.000000E+00
    0.736835E-01    0.609785E-02    0.000000E+00
    0.746736E-01    0.609785E-02    0.000000E+00
    0.756737E-01    0.609785E-02    0.000000E+00
    0.766837E-01    0.609785E-02    0.000000E+00
    0.670215E-01    0.629154E-02    0.000000E+00
    0.679450E-01    0.629154E-02    0.000000E+00
    0.688778E-01    0.629154E-02    0.000000E+00
    0.698199E-01    0.629154E-02    0.000000E+00
    0.707714E-01    0.629154E-02    0.000000E+00
    0.717325E-01    0.629154E-02    0.000000E+00
    0.727031E-01    0.629154E-02    0.000000E+00
    0.736835E-01    0.629154E-02    0.000000E+00
    0.746736E-01    0.629154E-02    0.000000E+00
    0.756737E-01    0.629154E-02    0.000000E+00
    0.766837E-01    0.629154E-02    0.000000E+00
    0.670215E-01    0.649103E-02    0.000000E+00
    0.679450E-01    0.649103E-02    0.000000E+00
    0.688778E-01    0.649103E-02    0.000000E+00
    0.698199E-01    0.649103E-02    0.000000E+00
    0.707714E-01    0.649103E-02    0.000000E+00
    0.717325E-01    0.649103E-02    0.000000E+00
    0.727031E-01    0.649103E-02    0.000000E+00
    0.736835E-01    0.649103E-02    0.000000E+00
    0.746736E-01    0.649103E-02    0.000000E+00
    0.756737E-01    0.649103E-02    0.000000E+00
    0.766837E-01    0.649103E-02    0.000000E+00
    0.670215E-01    0.669651E-02    0.000000E+00
    0.679450E-01    0.669651E-02    0.000000E+00
    0.688778E-01    0.669651E-02    0.000000E+00
    0.698199E-01    0.669651E-02    0.000000E+00
    0.707714E-01    0.669651E-02    0.000000E+00
    0.717325E-01    0.669651E-02    0.000000E+00
    0.727031E-01    0.669651E-02    0.000000E+00
    0.736835E-01    0.669651E-02    0.000000E+00
    0.746736E-01    0.669651E-02    0.000000E+00
    0.756737E-01    0.669651E-02    0.000000E+00
    0.766837E-01    0.669651E-02    0.000000E+00
    0.670215E-01    0.480136E-02    0.160000E-02
    0.679450E-01    0.480136E-02    0.160000E-02
    0.688778E-01    0.480136E-02    0.160000E-02
    0.698199E-01    0.480136E-02    0.160000E-02
    0.707714E-01    0.480136E-02    0.160000E-02
    0.717325E-01    0.480136E-02    0.160000E-02
    0.727031E-01    0.480136E-02    0.160000E-02
    0.736835E-01    0.480136E-02    0.160000E-02
    0.746736E-01    0.480136E-02    0.160000E-02
    0.756737E-01    0.480136E-02    0.160000E-02
    0.766837E-01    0.480136E-02    0.160000E-02
    0.670215E-01    0.499423E-02    0.160000E-02
    0.679450E-01    0.499423E-02    0.160000E-02
    0.688778E-01    0.499423E-02    0.160000E-02
    0.698199E-01    0.499423E-02    0.160000E-02
    0.707714E-01    0.499423E-02    0.160000E-02
    0.717325E-01    0.499423E-02    0.160000E-02
    0.727031E-01    0.499423E-02    0.160000E-02
    0.736835E-01    0.499423E-02    0.160000E-02
    0.746736E-01    0.499423E-02    0.160000E-02
    0.756737E-01    0.499423E-02    0.160000E-02
    0.766837E-01    0.499423E-02    0.160000E-02
    0.670215E-01    0.518324E-02    0.160000E-02
    0.679450E-01    0.518324E-02    0.160000E-02
    0.688778E-01    0.518324E-02    0.160000E-02
    0.698199E-01    0.518324E-02    0.160000E-02
    0.707714E-01    0.518324E-02    0.160000E-02
    0.717325E-01    0.518324E-02    0.160000E-02
    0.727031E-01    0.518324E-02    0.160000E-02
    0.736835E-01    0.518324E-02    0.160000E-02
    0.746736E-01    0.518324E-02    0.160000E-02
    0.756737E-01    0.518324E-02    0.160000E-02
    0.766837E-01    0.518324E-02    0.160000E-02
    0.670215E-01    0.536847E-02    0.160000E-02
    0.679450E-01    0.536847E-02    0.160000E-02
    0.688778E-01    0.536847E-02    0.160000E-02
    0.698199E-01    0.536847E-02    0.160000E-02
    0.707714E-01    0.536847E-02    0.160000E-02
    0.717325E-01    0.536847E-02    0.160000E-02
    0.727031E-01    0.536847E-02    0.160000E-02
    0.736835E-01    0.536847E-02    0.160000E-02
    0.746736E-01    0.536847E-02    0.160000E-02
    0.756737E-01    0.536847E-02    0.160000E-02
    0.766837E-01    0.536847E-02    0.160000E-02
    0.670215E-01    0.555000E-02    0.160000E-02
    0.679450E-01    0.555000E-02    0.160000E-02
    0.688778E-01    0.555000E-02    0.160000E-02
    0.698199E-01    0.555000E-02    0.160000E-02
    0.707714E-01    0.555000E-02    0.160000E-02
    0.717325E-01    0.555000E-02    0.160000E-02
    0.727031E-01    0.555000E-02    0.160000E-02
    0.736835E-01    0.555000E-02    0.160000E-02
    0.746736E-01    0.555000E-02    0.160000E-02
    0.756737E-01    0.555000E-02    0.160000E-02
    0.766837E-01    0.555000E-02    0.160000E-02
    0.670215E-01    0.572725E-02    0.160000E-02
    0.679450E-01    0.572725E-02    0.160000E-02
    0.688778E-01    0.572725E-02    0.160000E-02
    0.698199E-01    0.572725E-02    0.160000E-02
    0.707714E-01    0.572725E-02    0.160000E-02
    0.717325E-01    0.572725E-02    0.160000E-02
    0.727031E-01    0.572725E-02    0.160000E-02
    0.736835E-01    0.572725E-02    0.160000E-02
    0.746736E-01    0.572725E-02    0.160000E-02
    0.756737E-01    0.572725E-02    0.160000E-02
    0.766837E-01    0.572725E-02    0.160000E-02
    0.670215E-01    0.590981E-02    0.160000E-02
    0.679450E-01    0.590981E-02    0.160000E-02
    0.688778E-01    0.590981E-02    0.160000E-02
    0.698199E-01    0.590981E-02    0.160000E-02
    0.707714E-01    0.590981E-02    0.160000E-02
    0.717325E-01    0.590981E-02    0.160000E-02
    0.727031E-01    0.590981E-02    0.160000E-02
    0.736835E-01    0.590981E-02    0.160000E-02
    0.746736E-01    0.590981E-02    0.160000E-02
    0.756737E-01    0.590981E-02    0.160000E-02
    0.766837E-01    0.590981E-02    0.160000E-02
    0.670215E-01    0.609785E-02    0.160000E-02
    0.679450E-01    0.609785E-02    0.160000E-02
    0.688778E-01    0.609785E-02    0.160000E-02
    0.698199E-01    0.609785E-02    0.160000E-02
    0.707714E-01    0.609785E-02    0.160000E-02
    0.717325E-01    0.609785E-02    0.160000E-02
    0.727031E-01    0.609785E-02    0.160000E-02
    0.736835E-01    0.609785E-02    0.160000E-02
    0.746736E-01    0.609785E-02    0.160000E-02
    0.756737E-01    0.609785E-02    0.160000E-02
    0.766837E-01    0.609785E-02    0.160000E-02
    0.670215E-01    0.629154E-02    0.160000E-02
    0.679450E-01    0.629154E-02    0.160000E-02
    0.688778E-01    0.629154E-02    0.160000E-02
    0.698199E-01    0.629154E-02    0.160000E-02
    0.707714E-01    0.629154E-02    0.160000E-02
    0.717325E-01    0.629154E-02    0.160000E-02
    0.727031E-01    0.629154E-02    0.160000E-02
    0.736835E-01    0.629154E-02    0.160000E-02
    0.746736E-01    0.629154E-02    0.160000E-02
    0.756737E-01    0.629154E-02    0.160000E-02
    0.766837E-01    0.629154E-02    0.160000E-02
    0.670215E-01    0.649103E-02    0.160000E-02
    0.679450E-01    0.649103E-02    0.160000E-02
    0.688778E-01    0.649103E-02    0.160000E-02
    0.698199E-01    0.649103E-02    0.160000E-02
    0.707714E-01    0.649103E-02    0.160000E-02
    0.717325E-01    0.649103E-02    0.160000E-02
    0.727031E-01    0.649103E-02    0.160000E-02
    0.736835E-01    0.649103E-02    0.160000E-02
    0.746736E-01    0.649103E-02    0.160000E-02
    0.756737E-01    0.649103E-02    0.160000E-02
    0.766837E-01    0.649103E-02    0.160000E-02
    0.670215E-01    0.669651E-02    0.160000E-02
    0.679450E-01    0.669651E-02    0.160000E-02
    0.688778E-01    0.669651E-02    0.160000E-02
    0.698199E-01    0.669651E-02    0.160000E-02
    0.707714E-01    0.669651E-02    0.160000E-02
    0.717325E-01    0.669651E-02    0.160000E-02
    0.727031E-01    0.669651E-02    0.160000E-02
    0.736835E-01    0.669651E-02    0.160000E-02
    0.746736E-01    0.669651E-02    0.160000E-02
    0.756737E-01    0.669651E-02    0.160000E-02
    0.766837E-01    0.669651E-02    0.160000E-02
</DataArray>
</Points>
<PointData>
<DataArray Name="Velocity" type="Float64" format="ascii" NumberOfComponents="3">
    0.883741E-01   -0.765699E-05    0.000000E+00
    0.883769E-01   -0.721104E-05    0.000000E+00
    0.883796E-01   -0.672918E-05    0.000000E+00
    0.883821E-01   -0.627567E-05    0.000000E+00
    0.883844E-01   -0.584922E-05    0.000000E+00
    0.883866E-01   -0.544863E-05    0.000000E+00
    0.883887E-01   -0.507289E-05    0.000000E+00
    0.883907E-01   -0.472087E-05    0.000000E+00
    0.883925E-01   -0.439148E-05    0.000000E+00
    0.883943E-01   -0.408385E-05    0.000000E+00
    0.883959E-01   -0.379636E-05    0.000000E+00
    0.883742E-01   -0.794061E-05    0.000000E+00
    0.883770E-01   -0.747872E-05    0.000000E+00
    0.883796E-01   -0.698044E-05    0.000000E+00
    0.883821E-01   -0.651219E-05    0.000000E+00
    0.883845E-01   -0.607124E-05    0.000000E+00
    0.883867E-01   -0.565519E-05    0.000000E+00
    0.883888E-01   -0.526308E-05    0.000000E+00
    0.883907E-01   -0.489509E-05    0.000000E+00
    0.883926E-01   -0.455119E-05    0.000000E+00
    0.883943E-01   -0.423078E-05    0.000000E+00
    0.883960E-01   -0.393287E-05    0.000000E+00
    0.883743E-01   -0.823005E-05    0.000000E+00
    0.883771E-01   -0.775130E-05    0.000000E+00
    0.883797E-01   -0.723462E-05    0.000000E+00
    0.883822E-01   -0.674899E-05    0.000000E+00
    0.883845E-01   -0.629190E-05    0.000000E+00
    0.883867E-01   -0.586112E-05    0.000000E+00
    0.883888E-01   -0.545560E-05    0.000000E+00
    0.883908E-01   -0.507515E-05    0.000000E+00
    0.883926E-01   -0.471947E-05    0.000000E+00
    0.883944E-01   -0.438769E-05    0.000000E+00
    0.883960E-01   -0.407873E-05    0.000000E+00
    0.883743E-01   -0.851275E-05    0.000000E+00
    0.883771E-01   -0.801749E-05    0.000000E+00
    0.883798E-01   -0.748284E-05    0.000000E+00
    0.883823E-01   -0.698029E-05    0.000000E+00
    0.883846E-01   -0.650748E-05    0.000000E+00
    0.883868E-01   -0.606232E-05    0.000000E+00
    0.883889E-01   -0.564365E-05    0.000000E+00
    0.883908E-01   -0.525098E-05    0.000000E+00
    0.883927E-01   -0.488373E-05    0.000000E+00
    0.883944E-01   -0.454087E-05    0.000000E+00
    0.883960E-01   -0.422117E-05    0.000000E+00
    0.883744E-01   -0.878879E-05    0.000000E+00
    0.883772E-01   -0.827743E-05    0.000000E+00
    0.883799E-01   -0.772527E-05    0.000000E+00
    0.883824E-01   -0.720624E-05    0.000000E+00
    0.883847E-01   -0.671809E-05    0.000000E+00
    0.883869E-01   -0.625886E-05    0.000000E+00
    0.883890E-01   -0.582728E-05    0.000000E+00
    0.883909E-01   -0.542264E-05    0.000000E+00
    0.883927E-01   -0.504408E-05    0.000000E+00
    0.883945E-01   -0.469038E-05    0.000000E+00
    0.883961E-01   -0.436019E-05    0.000000E+00
    0.883746E-01   -0.905718E-05    0.000000E+00
    0.883773E-01   -0.853019E-05    0.000000E+00
    0.883800E-01   -0.796102E-05    0.000000E+00
    0.883824E-01   -0.742599E-05    0.000000E+00
    0.883848E-01   -0.692295E-05    0.000000E+00
    0.883870E-01   -0.645002E-05    0.000000E+00
    0.883890E-01   -0.600587E-05    0.000000E+00
    0.883910E-01   -0.558954E-05    0.000000E+00
    0.883928E-01   -0.519995E-05    0.000000E+00
    0.883945E-01   -0.483571E-05    0.000000E+00
    0.883962E-01   -0.449534E-05    0.000000E+00
    0.883747E-01   -0.933226E-05    0.000000E+00
    0.883775E-01   -0.878927E-05    0.000000E+00
    0.883801E-01   -0.820267E-05    0.000000E+00
    0.883826E-01   -0.765128E-05    0.000000E+00
    0.883849E-01   -0.713300E-05    0.000000E+00
    0.883871E-01   -0.664603E-05    0.000000E+00
    0.883891E-01   -0.618896E-05    0.000000E+00
    0.883911E-01   -0.576064E-05    0.000000E+00
    0.883929E-01   -0.535973E-05    0.000000E+00
    0.883946E-01   -0.498467E-05    0.000000E+00
    0.883962E-01   -0.463386E-05    0.000000E+00
    0.883748E-01   -0.961395E-05    0.000000E+00
    0.883776E-01   -0.905457E-05    0.000000E+00
    0.883802E-01   -0.845015E-05    0.000000E+00
    0.883827E-01   -0.788203E-05    0.000000E+00
    0.883850E-01   -0.734816E-05    0.000000E+00
    0.883872E-01   -0.684681E-05    0.000000E+00
    0.883892E-01   -0.637652E-05    0.000000E+00
    0.883911E-01   -0.593588E-05    0.000000E+00
    0.883930E-01   -0.552337E-05    0.000000E+00
    0.883947E-01   -0.513722E-05    0.000000E+00
    0.883963E-01   -0.477573E-05    0.000000E+00
    0.883750E-01   -0.990216E-05    0.000000E+00
    0.883778E-01   -0.932600E-05    0.000000E+00
    0.883804E-01   -0.870335E-05    0.000000E+00
    0.883828E-01   -0.811813E-05    0.000000E+00
    0.883851E-01   -0.756835E-05    0.000000E+00
    0.883873E-01   -0.705230E-05    0.000000E+00
    0.883893E-01   -0.656845E-05    0.000000E+00
    0.883913E-01   -0.611520E-05    0.000000E+00
    0.883931E-01   -0.569080E-05    0.000000E+00
    0.883948E-01   -0.529332E-05    0.000000E+00
    0.883964E-01   -0.492090E-05    0.000000E+00
    0.883752E-01   -0.101968E-04    0.000000E+00
    0.883780E-01   -0.960354E-05    0.000000E+00
    0.883805E-01   -0.896226E-05    0.000000E+00
    0.883830E-01   -0.835960E-05    0.000000E+00
    0.883853E-01   -0.779355E-05    0.000000E+00
    0.883874E-01   -0.726248E-05    0.000000E+00
    0.883895E-01   -0.676477E-05    0.000000E+00
    0.883914E-01   -0.629862E-05    0.000000E+00
    0.883932E-01   -0.586206E-05    0.000000E+00
    0.883949E-01   -0.545299E-05    0.000000E+00
    0.883965E-01   -0.506937E-05    0.000000E+00
    0.883754E-01   -0.104839E-04    0.000000E+00
    0.883782E-01   -0.987577E-05    0.000000E+00
    0.883807E-01   -0.921985E-05    0.000000E+00
    0.883832E-01   -0.860320E-05    0.000000E+00
    0.883854E-01   -0.802311E-05    0.000000E+00
    0.883876E-01   -0.747747E-05    0.000000E+00
    0.883896E-01   -0.696454E-05    0.000000E+00
    0.883915E-01   -0.648277E-05    0.000000E+00
    0.883933E-01   -0.603084E-05    0.000000E+00
    0.883950E-01   -0.560780E-05    0.000000E+00
    0.883966E-01   -0.521203E-05    0.000000E+00
    0.883741E-01   -0.772331E-05    0.189167E-20
    0.883769E-01   -0.721104E-05    0.176620E-20
    0.883795E-01   -0.672918E-05    0.164817E-20
    0.883820E-01   -0.627567E-05    0.153710E-20
    0.883844E-01   -0.584922E-05    0.143265E-20
    0.883866E-01   -0.544863E-05    0.133453E-20
    0.883887E-01   -0.507289E-05    0.124250E-20
    0.883907E-01   -0.472087E-05    0.115628E-20
    0.883925E-01   -0.439148E-05    0.107560E-20
    0.883943E-01   -0.408385E-05    0.100026E-20
    0.883959E-01   -0.379636E-05    0.929840E-21
    0.883742E-01   -0.800936E-05    0.196173E-20
    0.883770E-01   -0.747872E-05    0.183176E-20
    0.883796E-01   -0.698044E-05    0.170971E-20
    0.883821E-01   -0.651219E-05    0.159503E-20
    0.883845E-01   -0.607124E-05    0.148703E-20
    0.883867E-01   -0.565519E-05    0.138512E-20
    0.883888E-01   -0.526308E-05    0.128908E-20
    0.883907E-01   -0.489509E-05    0.119895E-20
    0.883926E-01   -0.455119E-05    0.111472E-20
    0.883943E-01   -0.423078E-05    0.103624E-20
    0.883960E-01   -0.393287E-05    0.963274E-21
    0.883743E-01   -0.830130E-05    0.203323E-20
    0.883771E-01   -0.775130E-05    0.189852E-20
    0.883797E-01   -0.723462E-05    0.177197E-20
    0.883822E-01   -0.674899E-05    0.165303E-20
    0.883845E-01   -0.629190E-05    0.154107E-20
    0.883867E-01   -0.586112E-05    0.143556E-20
    0.883888E-01   -0.545560E-05    0.133624E-20
    0.883908E-01   -0.507515E-05    0.124305E-20
    0.883926E-01   -0.471947E-05    0.115594E-20
    0.883944E-01   -0.438769E-05    0.107468E-20
    0.883960E-01   -0.407873E-05    0.999000E-21
    0.883743E-01   -0.858643E-05    0.210307E-20
    0.883771E-01   -0.801749E-05    0.196372E-20
    0.883798E-01   -0.748284E-05    0.183277E-20
    0.883823E-01   -0.698029E-05    0.170968E-20
    0.883846E-01   -0.650748E-05    0.159387E-20
    0.883868E-01   -0.606232E-05    0.148484E-20
    0.883889E-01   -0.564365E-05    0.138230E-20
    0.883908E-01   -0.525098E-05    0.128612E-20
    0.883927E-01   -0.488373E-05    0.119617E-20
    0.883944E-01   -0.454087E-05    0.111219E-20
    0.883960E-01   -0.422117E-05    0.103389E-20
    0.883744E-01   -0.886485E-05    0.217126E-20
    0.883772E-01   -0.827743E-05    0.202739E-20
    0.883799E-01   -0.772527E-05    0.189215E-20
    0.883824E-01   -0.720624E-05    0.176502E-20
    0.883847E-01   -0.671809E-05    0.164546E-20
    0.883869E-01   -0.625886E-05    0.153298E-20
    0.883890E-01   -0.582728E-05    0.142727E-20
    0.883909E-01   -0.542264E-05    0.132816E-20
    0.883927E-01   -0.504408E-05    0.123544E-20
    0.883945E-01   -0.469038E-05    0.114881E-20
    0.883961E-01   -0.436019E-05    0.106794E-20
    0.883746E-01   -0.913554E-05    0.223756E-20
    0.883773E-01   -0.853019E-05    0.208929E-20
    0.883800E-01   -0.796102E-05    0.194989E-20
    0.883824E-01   -0.742599E-05    0.181884E-20
    0.883848E-01   -0.692295E-05    0.169563E-20
    0.883870E-01   -0.645002E-05    0.157980E-20
    0.883890E-01   -0.600587E-05    0.147101E-20
    0.883910E-01   -0.558954E-05    0.136904E-20
    0.883928E-01   -0.519995E-05    0.127362E-20
    0.883945E-01   -0.483571E-05    0.118441E-20
    0.883962E-01   -0.449534E-05    0.110104E-20
    0.883747E-01   -0.941299E-05    0.230552E-20
    0.883775E-01   -0.878927E-05    0.215275E-20
    0.883801E-01   -0.820267E-05    0.200908E-20
    0.883826E-01   -0.765128E-05    0.187402E-20
    0.883849E-01   -0.713300E-05    0.174708E-20
    0.883871E-01   -0.664603E-05    0.162781E-20
    0.883891E-01   -0.618896E-05    0.151586E-20
    0.883911E-01   -0.576064E-05    0.141095E-20
    0.883929E-01   -0.535973E-05    0.131276E-20
    0.883946E-01   -0.498467E-05    0.122089E-20
    0.883962E-01   -0.463386E-05    0.113497E-20
    0.883748E-01   -0.969709E-05    0.237510E-20
    0.883776E-01   -0.905457E-05    0.221773E-20
    0.883802E-01   -0.845015E-05    0.206969E-20
    0.883827E-01   -0.788203E-05    0.193054E-20
    0.883850E-01   -0.734816E-05    0.179978E-20
    0.883872E-01   -0.684681E-05    0.167699E-20
    0.883892E-01   -0.637652E-05    0.156180E-20
    0.883911E-01   -0.593588E-05    0.145387E-20
    0.883930E-01   -0.552337E-05    0.135284E-20
    0.883947E-01   -0.513722E-05    0.125826E-20
    0.883963E-01   -0.477573E-05    0.116972E-20
    0.883750E-01   -0.998777E-05    0.244630E-20
    0.883778E-01   -0.932600E-05    0.228421E-20
    0.883804E-01   -0.870335E-05    0.213171E-20
    0.883828E-01   -0.811813E-05    0.198837E-20
    0.883851E-01   -0.756835E-05    0.185371E-20
    0.883873E-01   -0.705230E-05    0.172732E-20
    0.883893E-01   -0.656845E-05    0.160881E-20
    0.883913E-01   -0.611520E-05    0.149779E-20
    0.883931E-01   -0.569080E-05    0.139384E-20
    0.883948E-01   -0.529332E-05    0.129649E-20
    0.883964E-01   -0.492090E-05    0.120527E-20
    0.883752E-01   -0.102849E-04    0.251908E-20
    0.883780E-01   -0.960354E-05    0.235219E-20
    0.883805E-01   -0.896226E-05    0.219512E-20
    0.883830E-01   -0.835960E-05    0.204751E-20
    0.883853E-01   -0.779355E-05    0.190887E-20
    0.883874E-01   -0.726248E-05    0.177879E-20
    0.883895E-01   -0.676477E-05    0.165689E-20
    0.883914E-01   -0.629862E-05    0.154272E-20
    0.883932E-01   -0.586206E-05    0.143579E-20
    0.883949E-01   -0.545299E-05    0.133560E-20
    0.883965E-01   -0.506937E-05    0.124164E-20
    0.883754E-01   -0.105744E-04    0.258998E-20
    0.883782E-01   -0.987577E-05    0.241887E-20
    0.883807E-01   -0.921985E-05    0.225821E-20
    0.883832E-01   -0.860320E-05    0.210718E-20
    0.883854E-01   -0.802311E-05    0.196509E-20
    0.883876E-01   -0.747747E-05    0.183145E-20
    0.883896E-01   -0.696454E-05    0.170582E-20
    0.883915E-01   -0.648277E-05    0.158782E-20
    0.883933E-01   -0.603084E-05    0.147713E-20
    0.883950E-01   -0.560780E-05    0.137352E-20
    0.883966E-01   -0.521203E-05    0.127658E-20
</DataArray>
</PointData>
<CellData>
<DataArray Name="DP" type="Float64" format="ascii" NumberOfComponents="1">
      0.000000E+0000
      0.000000E+0000
      0.000000E+0000
      0.000000E+0000
      0.000000E+0000
      0.000000E+0000
      0.000000E+0000
      0.000000E+0000
      0.000000E+0000
      0.000000E+0000
      0.000000E+0000
      0.000000E+0000
      0.000000E+0000
      0.000000E+0000
      0.000000E+0000
      0.000000E+0000
      0.000000E+0000
      0.000000E+0000
      0.000000E+0000
      0.000000E+0000
      0.000000E+0000
      0.000000E+0000
      0.000000E+0000
      0.000000E+0000
      0.000000E+0000
      0.000000E+0000
      0.000000E+0000
      0.000000E+0000
      0.000000E+0000
      0.000000E+0000
      0.000000E+0000
      0.000000E+0000
      0.000000E+0000
      0.000000E+0000
      0.000000E+0000
      0.000000E+0000
      0.000000E+0000
      0.000000E+0000
      0.000000E+0000
      0.000000E+0000
      0.000000E+0000
      0.000000E+0000
      0.000000E+0000
      0.000000E+0000
      0.000000E+0000
      0.000000E+0000
      0.000000E+0000
      0.000000E+0000
      0.000000E+0000
      0.000000E+0000
      0.000000E+0000
      0.000000E+0000
      0.000000E+0000
      0.000000E+0000
      0.000000E+0000
      0.000000E+0000
      0.000000E+0000
      0.000000E+0000
      0.000000E+0000
      0.000000E+0000
      0.000000E+0000
      0.000000E+0000
      0.000000E+0000
      0.000000E+0000
      0.000000E+0000
      0.000000E+0000
      0.000000E+0000
      0.000000E+0000
      0.000000E+0000
      0.000000E+0000
      0.000000E+0000
      0.000000E+0000
      0.000000E+0000
      0.000000E+0000
      0.000000E+0000
      0.000000E+0000
      0.000000E+0000
      0.000000E+0000
      0.000000E+0000
      0.000000E+0000
      0.000000E+0000
      0.000000E+0000
      0.000000E+0000
      0.000000E+0000
      0.000000E+0000
      0.000000E+0000
      0.000000E+0000
      0.000000E+0000
      0.000000E+0000
      0.000000E+0000
      0.000000E+0000
      0.000000E+0000
      0.000000E+0000
      0.000000E+0000
      0.000000E+0000
      0.000000E+0000
      0.000000E+0000
      0.000000E+0000
      0.000000E+0000
      0.000000E+0000
</DataArray>
<DataArray Name="P" type="Float64" format="ascii" NumberOfComponents="1">
     -0.142724E+0000
     -0.153404E+0000
     -0.164188E+0000
     -0.175077E+0000
     -0.186071E+0000
     -0.197172E+0000
     -0.208380E+0000
     -0.219699E+0000
     -0.231131E+0000
     -0.242679E+0000
     -0.142723E+0000
     -0.153403E+0000
     -0.164187E+0000
     -0.175076E+0000
     -0.186070E+0000
     -0.197171E+0000
     -0.208380E+0000
     -0.219699E+0000
     -0.231132E+0000
     -0.242680E+0000
     -0.142723E+0000
     -0.153402E+0000
     -0.164186E+0000
     -0.175075E+0000
     -0.186069E+0000
     -0.197170E+0000
     -0.208380E+0000
     -0.219699E+0000
     -0.231132E+0000
     -0.242680E+0000
     -0.142722E+0000
     -0.153401E+0000
     -0.164185E+0000
     -0.175074E+0000
     -0.186068E+0000
     -0.197170E+0000
     -0.208379E+0000
     -0.219699E+0000
     -0.231132E+0000
     -0.242681E+0000
     -0.142721E+0000
     -0.153400E+0000
     -0.164184E+0000
     -0.175073E+0000
     -0.186068E+0000
     -0.197169E+0000
     -0.208379E+0000
     -0.219699E+0000
     -0.231132E+0000
     -0.242681E+0000
     -0.142720E+0000
     -0.153399E+0000
     -0.164183E+0000
     -0.175072E+0000
     -0.186067E+0000
     -0.197169E+0000
     -0.208379E+0000
     -0.219699E+0000
     -0.231133E+0000
     -0.242681E+0000
     -0.142720E+0000
     -0.153398E+0000
     -0.164182E+0000
     -0.175072E+0000
     -0.186067E+0000
     -0.197169E+0000
     -0.208379E+0000
     -0.219699E+0000
     -0.231133E+0000
     -0.242682E+0000
     -0.142719E+0000
     -0.153398E+0000
     -0.164182E+0000
     -0.175071E+0000
     -0.186066E+0000
     -0.197168E+0000
     -0.208379E+0000
     -0.219699E+0000
     -0.231133E+0000
     -0.242682E+0000
     -0.142718E+0000
     -0.153397E+0000
     -0.164181E+0000
     -0.175071E+0000
     -0.186066E+0000
     -0.197168E+0000
     -0.208378E+0000
     -0.219699E+0000
     -0.231133E+0000
     -0.242682E+0000
     -0.142718E+0000
     -0.153397E+0000
     -0.164181E+0000
     -0.175070E+0000
     -0.186066E+0000
     -0.197168E+0000
     -0.208378E+0000
     -0.219699E+0000
     -0.231133E+0000
     -0.242682E+0000
</DataArray>
<DataArray Name="RHO" type="Float64" format="ascii" NumberOfComponents="1">
      0.117197E+0001
      0.117197E+0001
      0.117197E+0001
      0.117197E+0001
      0.117197E+0001
      0.117197E+0001
      0.117197E+0001
      0.117197E+0001
      0.117197E+0001
      0.117197E+0001
      0.117197E+0001
      0.117197E+0001
      0.117197E+0001
      0.117197E+0001
      0.117197E+0001
      0.117197E+0001
      0.117197E+0001
      0.117197E+0001
      0.117197E+0001
      0.117197E+0001
      0.117197E+0001
      0.117197E+0001
      0.117197E+0001
      0.117197E+0001
      0.117197E+0001
      0.117197E+0001
      0.117197E+0001
      0.117197E+0001
      0.117197E+0001
      0.117197E+0001
      0.117197E+0001
      0.117197E+0001
      0.117197E+0001
      0.117197E+0001
      0.117197E+0001
      0.117197E+0001
      0.117197E+0001
      0.117197E+0001
      0.117197E+0001
      0.117197E+0001
      0.117197E+0001
      0.117197E+0001
      0.117197E+0001
      0.117197E+0001
      0.117197E+0001
      0.117197E+0001
      0.117197E+0001
      0.117197E+0001
      0.117197E+0001
      0.117197E+0001
      0.117197E+0001
      0.117197E+0001
      0.117197E+0001
      0.117197E+0001
      0.117197E+0001
      0.117197E+0001
      0.117197E+0001
      0.117197E+0001
      0.117197E+0001
      0.117197E+0001
      0.117197E+0001
      0.117197E+0001