<?xml version="1.0"?>
<VTKFile type="StructuredGrid" version="0.1" byte_order="LittleEndian">
<StructuredGrid WholeExtent="         130         140          10          20           0           1">
<Piece Extent="         130         140          10          20           0           1">
<Points>
<DataArray NumberOfComponents="3" type="Float64" format="ascii">
    0.670215E-01    0.264236E-02    0.000000E+00
    0.679450E-01    0.264236E-02    0.000000E+00
    0.688778E-01    0.264236E-02    0.000000E+00
    0.698199E-01    0.264236E-02    0.000000E+00
    0.707714E-01    0.264236E-02    0.000000E+00
    0.717325E-01    0.264236E-02    0.000000E+00
    0.727031E-01    0.264236E-02    0.000000E+00
    0.736835E-01    0.264236E-02    0.000000E+00
    0.746736E-01    0.264236E-02    0.000000E+00
    0.756737E-01    0.264236E-02    0.000000E+00
    0.766837E-01    0.264236E-02    0.000000E+00
    0.670215E-01    0.287841E-02    0.000000E+00
    0.679450E-01    0.287841E-02    0.000000E+00
    0.688778E-01    0.287841E-02    0.000000E+00
    0.698199E-01    0.287841E-02    0.000000E+00
    0.707714E-01    0.287841E-02    0.000000E+00
    0.717325E-01    0.287841E-02    0.000000E+00
    0.727031E-01    0.287841E-02    0.000000E+00
    0.736835E-01    0.287841E-02    0.000000E+00
    0.746736E-01    0.287841E-02    0.000000E+00
    0.756737E-01    0.287841E-02    0.000000E+00
    0.766837E-01    0.287841E-02    0.000000E+00
    0.670215E-01    0.310974E-02    0.000000E+00
    0.679450E-01    0.310974E-02    0.000000E+00
    0.688778E-01    0.310974E-02    0.000000E+00
    0.698199E-01    0.310974E-02    0.000000E+00
    0.707714E-01    0.310974E-02    0.000000E+00
    0.717325E-01    0.310974E-02    0.000000E+00
    0.727031E-01    0.310974E-02    0.000000E+00
    0.736835E-01    0.310974E-02    0.000000E+00
    0.746736E-01    0.310974E-02    0.000000E+00
    0.756737E-01    0.310974E-02    0.000000E+00
    0.766837E-01    0.310974E-02    0.000000E+00
    0.670215E-01    0.333644E-02    0.000000E+00
    0.679450E-01    0.333644E-02    0.000000E+00
    0.688778E-01    0.333644E-02    0.000000E+00
    0.698199E-01    0.333644E-02    0.000000E+00
    0.707714E-01    0.333644E-02    0.000000E+00
    0.717325E-01    0.333644E-02    0.000000E+00
    0.727031E-01    0.333644E-02    0.000000E+00
    0.736835E-01    0.333644E-02    0.000000E+00
    0.746736E-01    0.333644E-02    0.000000E+00
    0.756737E-01    0.333644E-02    0.000000E+00
    0.766837E-01    0.333644E-02    0.000000E+00
    0.670215E-01    0.355861E-02    0.000000E+00
    0.679450E-01    0.355861E-02    0.000000E+00
    0.688778E-01    0.355861E-02    0.000000E+00
    0.698199E-01    0.355861E-02    0.000000E+00
    0.707714E-01    0.355861E-02    0.000000E+00
    0.717325E-01    0.355861E-02    0.000000E+00
    0.727031E-01    0.355861E-02    0.000000E+00
    0.736835E-01    0.355861E-02    0.000000E+00
    0.746736E-01    0.355861E-02    0.000000E+00
    0.756737E-01    0.355861E-02    0.000000E+00
    0.766837E-01    0.355861E-02    0.000000E+00
    0.670215E-01    0.377633E-02    0.000000E+00
    0.679450E-01    0.377633E-02    0.000000E+00
    0.688778E-01    0.377633E-02    0.000000E+00
    0.698199E-01    0.377633E-02    0.000000E+00
    0.707714E-01    0.377633E-02    0.000000E+00
    0.717325E-01    0.377633E-02    0.000000E+00
    0.727031E-01    0.377633E-02    0.000000E+00
    0.736835E-01    0.377633E-02    0.000000E+00
    0.746736E-01    0.377633E-02    0.000000E+00
    0.756737E-01    0.377633E-02    0.000000E+00
    0.766837E-01    0.377633E-02    0.000000E+00
    0.670215E-01    0.398970E-02    0.000000E+00
    0.679450E-01    0.398970E-02    0.000000E+00
    0.688778E-01    0.398970E-02    0.000000E+00
    0.698199E-01    0.398970E-02    0.000000E+00
    0.707714E-01    0.398970E-02    0.000000E+00
    0.717325E-01    0.398970E-02    0.000000E+00
    0.727031E-01    0.398970E-02    0.000000E+00
    0.736835E-01    0.398970E-02    0.000000E+00
    0.746736E-01    0.398970E-02    0.000000E+00
    0.756737E-01    0.398970E-02    0.000000E+00
    0.766837E-01    0.398970E-02    0.000000E+00
    0.670215E-01    0.419881E-02    0.000000E+00
    0.679450E-01    0.419881E-02    0.000000E+00
    0.688778E-01    0.419881E-02    0.000000E+00
    0.698199E-01    0.419881E-02    0.000000E+00
    0.707714E-01    0.419881E-02    0.000000E+00
    0.717325E-01    0.419881E-02    0.000000E+00
    0.727031E-01    0.419881E-02    0.000000E+00
    0.736835E-01    0.419881E-02    0.000000E+00
    0.746736E-01    0.419881E-02    0.000000E+00
    0.756737E-01    0.419881E-02    0.000000E+00
    0.766837E-01    0.419881E-02    0.000000E+00
    0.670215E-01    0.440373E-02    0.000000E+00
    0.679450E-01    0.440373E-02    0.000000E+00
    0.688778E-01    0.440373E-02    0.000000E+00
    0.698199E-01    0.440373E-02    0.000000E+00
    0.707714E-01    0.440373E-02    0.000000E+00
    0.717325E-01    0.440373E-02    0.000000E+00
    0.727031E-01    0.440373E-02    0.000000E+00
    0.736835E-01    0.440373E-02    0.000000E+00
    0.746736E-01    0.440373E-02    0.000000E+00
    0.756737E-01    0.440373E-02    0.000000E+00
    0.766837E-01    0.440373E-02    0.000000E+00
    0.670215E-01    0.460455E-02    0.000000E+00
    0.679450E-01    0.460455E-02    0.000000E+00
    0.688778E-01    0.460455E-02    0.000000E+00
    0.698199E-01    0.460455E-02    0.000000E+00
    0.707714E-01    0.460455E-02    0.000000E+00
    0.717325E-01    0.460455E-02    0.000000E+00
    0.727031E-01    0.460455E-02    0.000000E+00
    0.736835E-01    0.460455E-02    0.000000E+00
    0.746736E-01    0.460455E-02    0.000000E+00
    0.756737E-01    0.460455E-02    0.000000E+00
    0.766837E-01    0.460455E-02    0.000000E+00
    0.670215E-01    0.480136E-02    0.000000E+00
    0.679450E-01    0.480136E-02    0.000000E+00
    0.688778E-01    0.480136E-02    0.000000E+00
    0.698199E-01    0.480136E-02    0.000000E+00
    0.707714E-01    0.480136E-02    0.000000E+00
    0.717325E-01    0.480136E-02    0.000000E+00
    0.727031E-01    0.480136E-02    0.000000E+00
    0.736835E-01    0.480136E-02    0.000000E+00
    0.746736E-01    0.480136E-02    0.000000E+00
    0.756737E-01    0.480136E-02    0.000000E+00
    0.766837E-01    0.480136E-02    0.000000E+00
    0.670215E-01    0.264236E-02    0.160000E-02
    0.679450E-01    0.264236E-02    0.160000E-02
    0.688778E-01    0.264236E-02    0.160000E-02
    0.698199E-01    0.264236E-02    0.160000E-02
    0.707714E-01    0.264236E-02    0.160000E-02
    0.717325E-01    0.264236E-02    0.160000E-02
    0.727031E-01    0.264236E-02    0.160000E-02
    0.736835E-01    0.264236E-02    0.160000E-02
    0.746736E-01    0.264236E-02    0.160000E-02
    0.756737E-01    0.264236E-02    0.160000E-02
    0.766837E-01    0.264236E-02    0.160000E-02
    0.670215E-01    0.287841E-02    0.160000E-02
    0.679450E-01    0.287841E-02    0.160000E-02
    0.688778E-01    0.287841E-02    0.160000E-02
    0.698199E-01    0.287841E-02    0.160000E-02
    0.707714E-01    0.287841E-02    0.160000E-02
    0.717325E-01    0.287841E-02    0.160000E-02
    0.727031E-01    0.287841E-02    0.160000E-02
    0.736835E-01    0.287841E-02    0.160000E-02
    0.746736E-01    0.287841E-02    0.160000E-02
    0.756737E-01    0.287841E-02    0.160000E-02
    0.766837E-01    0.287841E-02    0.160000E-02
    0.670215E-01    0.310974E-02    0.160000E-02
    0.679450E-01    0.310974E-02    0.160000E-02
    0.688778E-01    0.310974E-02    0.160000E-02
    0.698199E-01    0.310974E-02    0.160000E-02
    0.707714E-01    0.310974E-02    0.160000E-02
    0.717325E-01    0.310974E-02    0.160000E-02
    0.727031E-01    0.310974E-02    0.160000E-02
    0.736835E-01    0.310974E-02    0.160000E-02
    0.746736E-01    0.310974E-02    0.160000E-02
    0.756737E-01    0.310974E-02    0.160000E-02
    0.766837E-01    0.310974E-02    0.160000E-02
    0.670215E-01    0.333644E-02    0.160000E-02
    0.679450E-01    0.333644E-02    0.160000E-02
    0.688778E-01    0.333644E-02    0.160000E-02
    0.698199E-01    0.333644E-02    0.160000E-02
    0.707714E-01    0.333644E-02    0.160000E-02
    0.717325E-01    0.333644E-02    0.160000E-02
    0.727031E-01    0.333644E-02    0.160000E-02
    0.736835E-01    0.333644E-02    0.160000E-02
    0.746736E-01    0.333644E-02    0.160000E-02
    0.756737E-01    0.333644E-02    0.160000E-02
    0.766837E-01    0.333644E-02    0.160000E-02
    0.670215E-01    0.355861E-02    0.160000E-02
    0.679450E-01    0.355861E-02    0.160000E-02
    0.688778E-01    0.355861E-02    0.160000E-02
    0.698199E-01    0.355861E-02    0.160000E-02
    0.707714E-01    0.355861E-02    0.160000E-02
    0.717325E-01    0.355861E-02    0.160000E-02
    0.727031E-01    0.355861E-02    0.160000E-02
    0.736835E-01    0.355861E-02    0.160000E-02
    0.746736E-01    0.355861E-02    0.160000E-02
    0.756737E-01    0.355861E-02    0.160000E-02
    0.766837E-01    0.355861E-02    0.160000E-02
    0.670215E-01    0.377633E-02    0.160000E-02
    0.679450E-01    0.377633E-02    0.160000E-02
    0.688778E-01    0.377633E-02    0.160000E-02
    0.698199E-01    0.377633E-02    0.160000E-02
    0.707714E-01    0.377633E-02    0.160000E-02
    0.717325E-01    0.377633E-02    0.160000E-02
    0.727031E-01    0.377633E-02    0.160000E-02
    0.736835E-01    0.377633E-02    0.160000E-02
    0.746736E-01    0.377633E-02    0.160000E-02
    0.756737E-01    0.377633E-02    0.160000E-02
    0.766837E-01    0.377633E-02    0.160000E-02
    0.670215E-01    0.398970E-02    0.160000E-02
    0.679450E-01    0.398970E-02    0.160000E-02
    0.688778E-01    0.398970E-02    0.160000E-02
    0.698199E-01    0.398970E-02    0.160000E-02
    0.707714E-01    0.398970E-02    0.160000E-02
    0.717325E-01    0.398970E-02    0.160000E-02
    0.727031E-01    0.398970E-02    0.160000E-02
    0.736835E-01    0.398970E-02    0.160000E-02
    0.746736E-01    0.398970E-02    0.160000E-02
    0.756737E-01    0.398970E-02    0.160000E-02
    0.766837E-01    0.398970E-02    0.160000E-02
    0.670215E-01    0.419881E-02    0.160000E-02
    0.679450E-01    0.419881E-02    0.160000E-02
    0.688778E-01    0.419881E-02    0.160000E-02
    0.698199E-01    0.419881E-02    0.160000E-02
    0.707714E-01    0.419881E-02    0.160000E-02
    0.717325E-01    0.419881E-02    0.160000E-02
    0.727031E-01    0.419881E-02    0.160000E-02
    0.736835E-01    0.419881E-02    0.160000E-02
    0.746736E-01    0.419881E-02    0.160000E-02
    0.756737E-01    0.419881E-02    0.160000E-02
    0.766837E-01    0.419881E-02    0.160000E-02
    0.670215E-01    0.440373E-02    0.160000E-02
    0.679450E-01    0.440373E-02    0.160000E-02
    0.688778E-01    0.440373E-02    0.160000E-02
    0.698199E-01    0.440373E-02    0.160000E-02
    0.707714E-01    0.440373E-02    0.160000E-02
    0.717325E-01    0.440373E-02    0.160000E-02
    0.727031E-01    0.440373E-02    0.160000E-02
    0.736835E-01    0.440373E-02    0.160000E-02
    0.746736E-01    0.440373E-02    0.160000E-02
    0.756737E-01    0.440373E-02    0.160000E-02
    0.766837E-01    0.440373E-02    0.160000E-02
    0.670215E-01    0.460455E-02    0.160000E-02
    0.679450E-01    0.460455E-02    0.160000E-02
    0.688778E-01    0.460455E-02    0.160000E-02
    0.698199E-01    0.460455E-02    0.160000E-02
    0.707714E-01    0.460455E-02    0.160000E-02
    0.717325E-01    0.460455E-02    0.160000E-02
    0.727031E-01    0.460455E-02    0.160000E-02
    0.736835E-01    0.460455E-02    0.160000E-02
    0.746736E-01    0.460455E-02    0.160000E-02
    0.756737E-01    0.460455E-02    0.160000E-02
    0.766837E-01    0.460455E-02    0.160000E-02
    0.670215E-01    0.480136E-02    0.160000E-02
    0.679450E-01    0.480136E-02    0.160000E-02
    0.688778E-01    0.480136E-02    0.160000E-02
    0.698199E-01    0.480136E-02    0.160000E-02
    0.707714E-01    0.480136E-02    0.160000E-02
    0.717325E-01    0.480136E-02    0.160000E-02
    0.727031E-01    0.480136E-02    0.160000E-02
    0.736835E-01    0.480136E-02    0.160000E-02
    0.746736E-01    0.480136E-02    0.160000E-02
    0.756737E-01    0.480136E-02    0.160000E-02
    0.766837E-01    0.480136E-02    0.160000E-02
</DataArray>
</Points>
<PointData>
<DataArray Name="Velocity" type="Float64" format="ascii" NumberOfComponents="3">
    0.884184E-01    0.293691E-05    0.000000E+00
    0.884165E-01    0.262865E-05    0.000000E+00
    0.884148E-01    0.231586E-05    0.000000E+00
    0.884133E-01    0.204070E-05    0.000000E+00
    0.884119E-01    0.179695E-05    0.000000E+00
    0.884107E-01    0.158267E-05    0.000000E+00
    0.884096E-01    0.139515E-05    0.000000E+00
    0.884087E-01    0.123041E-05    0.000000E+00
    0.884078E-01    0.108451E-05    0.000000E+00
    0.884070E-01    0.956296E-06    0.000000E+00
    0.884063E-01    0.844325E-06    0.000000E+00
    0.884184E-01    0.319714E-05    0.000000E+00
    0.884165E-01    0.286380E-05    0.000000E+00
    0.884148E-01    0.252412E-05    0.000000E+00
    0.884133E-01    0.222376E-05    0.000000E+00
    0.884119E-01    0.195941E-05    0.000000E+00
    0.884107E-01    0.172731E-05    0.000000E+00
    0.884096E-01    0.152285E-05    0.000000E+00
    0.884087E-01    0.134195E-05    0.000000E+00
    0.884078E-01    0.118196E-05    0.000000E+00
    0.884070E-01    0.104119E-05    0.000000E+00
    0.884064E-01    0.918241E-06    0.000000E+00
    0.884185E-01    0.344705E-05    0.000000E+00
    0.884165E-01    0.308743E-05    0.000000E+00
    0.884148E-01    0.272154E-05    0.000000E+00
    0.884133E-01    0.239847E-05    0.000000E+00
    0.884120E-01    0.211384E-05    0.000000E+00
    0.884107E-01    0.186347E-05    0.000000E+00
    0.884097E-01    0.164290E-05    0.000000E+00
    0.884087E-01    0.144808E-05    0.000000E+00
    0.884078E-01    0.127615E-05    0.000000E+00
    0.884071E-01    0.112507E-05    0.000000E+00
    0.884064E-01    0.993000E-06    0.000000E+00
    0.884185E-01    0.369157E-05    0.000000E+00
    0.884166E-01    0.330642E-05    0.000000E+00
    0.884149E-01    0.291497E-05    0.000000E+00
    0.884133E-01    0.256969E-05    0.000000E+00
    0.884120E-01    0.226523E-05    0.000000E+00
    0.884108E-01    0.199706E-05    0.000000E+00
    0.884097E-01    0.176075E-05    0.000000E+00
    0.884087E-01    0.155228E-05    0.000000E+00
    0.884079E-01    0.136858E-05    0.000000E+00
    0.884071E-01    0.120734E-05    0.000000E+00
    0.884064E-01    0.106632E-05    0.000000E+00
    0.884185E-01    0.393026E-05    0.000000E+00
    0.884166E-01    0.352035E-05    0.000000E+00
    0.884149E-01    0.310406E-05    0.000000E+00
    0.884133E-01    0.273710E-05    0.000000E+00
    0.884120E-01    0.241330E-05    0.000000E+00
    0.884108E-01    0.212777E-05    0.000000E+00
    0.884097E-01    0.187615E-05    0.000000E+00
    0.884087E-01    0.165434E-05    0.000000E+00
    0.884079E-01    0.145912E-05    0.000000E+00
    0.884071E-01    0.128793E-05    0.000000E+00
    0.884064E-01    0.113814E-05    0.000000E+00
    0.884185E-01    0.416280E-05    0.000000E+00
    0.884166E-01    0.372893E-05    0.000000E+00
    0.884149E-01    0.328854E-05    0.000000E+00
    0.884133E-01    0.290050E-05    0.000000E+00
    0.884120E-01    0.255787E-05    0.000000E+00
    0.884108E-01    0.225546E-05    0.000000E+00
    0.884097E-01    0.198894E-05    0.000000E+00
    0.884088E-01    0.175414E-05    0.000000E+00
    0.884079E-01    0.154767E-05    0.000000E+00
    0.884071E-01    0.136677E-05    0.000000E+00
    0.884065E-01    0.120844E-05    0.000000E+00
    0.884184E-01    0.438900E-05    0.000000E+00
    0.884165E-01    0.393194E-05    0.000000E+00
    0.884149E-01    0.346823E-05    0.000000E+00
    0.884133E-01    0.305977E-05    0.000000E+00
    0.884120E-01    0.269883E-05    0.000000E+00
    0.884108E-01    0.238001E-05    0.000000E+00
    0.884097E-01    0.209903E-05    0.000000E+00
    0.884088E-01    0.185161E-05    0.000000E+00
    0.884079E-01    0.163420E-05    0.000000E+00
    0.884072E-01    0.144385E-05    0.000000E+00
    0.884065E-01    0.127718E-05    0.000000E+00
    0.884184E-01    0.460866E-05    0.000000E+00
    0.884165E-01    0.412921E-05    0.000000E+00
    0.884148E-01    0.364297E-05    0.000000E+00
    0.884133E-01    0.321475E-05    0.000000E+00
    0.884120E-01    0.283609E-05    0.000000E+00
    0.884108E-01    0.250134E-05    0.000000E+00
    0.884097E-01    0.220634E-05    0.000000E+00
    0.884088E-01    0.194669E-05    0.000000E+00
    0.884079E-01    0.171863E-05    0.000000E+00
    0.884072E-01    0.151910E-05    0.000000E+00
    0.884065E-01    0.134434E-05    0.000000E+00
    0.884183E-01    0.482156E-05    0.000000E+00
    0.884165E-01    0.432051E-05    0.000000E+00
    0.884148E-01    0.381257E-05    0.000000E+00
    0.884133E-01    0.336535E-05    0.000000E+00
    0.884120E-01    0.296956E-05    0.000000E+00
    0.884108E-01    0.261936E-05    0.000000E+00
    0.884097E-01    0.231078E-05    0.000000E+00
    0.884088E-01    0.203927E-05    0.000000E+00
    0.884079E-01    0.180092E-05    0.000000E+00
    0.884072E-01    0.159249E-05    0.000000E+00
    0.884065E-01    0.140987E-05    0.000000E+00
    0.884183E-01    0.502750E-05    0.000000E+00
    0.884164E-01    0.450571E-05    0.000000E+00
    0.884148E-01    0.397695E-05    0.000000E+00
    0.884133E-01    0.351145E-05    0.000000E+00
    0.884120E-01    0.309908E-05    0.000000E+00
    0.884108E-01    0.273390E-05    0.000000E+00
    0.884097E-01    0.241218E-05    0.000000E+00
    0.884088E-01    0.212922E-05    0.000000E+00
    0.884079E-01    0.188091E-05    0.000000E+00
    0.884072E-01    0.166393E-05    0.000000E+00
    0.884065E-01    0.147372E-05    0.000000E+00
    0.884182E-01    0.523540E-05    0.000000E+00
    0.884163E-01    0.469542E-05    0.000000E+00
    0.884147E-01    0.414302E-05    0.000000E+00
    0.884132E-01    0.365284E-05    0.000000E+00
    0.884119E-01    0.322615E-05    0.000000E+00
    0.884107E-01    0.285276E-05    0.000000E+00
    0.884097E-01    0.251915E-05    0.000000E+00
    0.884087E-01    0.222065E-05    0.000000E+00
    0.884079E-01    0.195894E-05    0.000000E+00
    0.884072E-01    0.173238E-05    0.000000E+00
    0.884065E-01    0.153477E-05    0.000000E+00
    0.884184E-01    0.298428E-05   -0.730938E-21
    0.884165E-01    0.262865E-05   -0.643832E-21
    0.884148E-01    0.231586E-05   -0.567223E-21
    0.884133E-01    0.204070E-05   -0.499826E-21
    0.884119E-01    0.179695E-05   -0.440125E-21
    0.884107E-01    0.158267E-05   -0.387641E-21
    0.884096E-01    0.139515E-05   -0.341713E-21
    0.884086E-01    0.123041E-05   -0.301364E-21
    0.884078E-01    0.108451E-05   -0.265629E-21
    0.884070E-01    0.956296E-06   -0.234225E-21
    0.884063E-01    0.844325E-06   -0.206800E-21
    0.884184E-01    0.324853E-05   -0.795660E-21
    0.884165E-01    0.286380E-05   -0.701429E-21
    0.884148E-01    0.252412E-05   -0.618232E-21
    0.884133E-01    0.222376E-05   -0.544663E-21
    0.884119E-01    0.195941E-05   -0.479916E-21
    0.884107E-01    0.172731E-05   -0.423069E-21
    0.884096E-01    0.152285E-05   -0.372991E-21
    0.884087E-01    0.134195E-05   -0.328684E-21
    0.884078E-01    0.118196E-05   -0.289497E-21
    0.884070E-01    0.104119E-05   -0.255019E-21
    0.884064E-01    0.918241E-06   -0.224904E-21
    0.884185E-01    0.350251E-05   -0.857867E-21
    0.884165E-01    0.308743E-05   -0.756202E-21
    0.884148E-01    0.272154E-05   -0.666585E-21
    0.884133E-01    0.239847E-05   -0.587456E-21
    0.884120E-01    0.211384E-05   -0.517740E-21
    0.884107E-01    0.186347E-05   -0.456418E-21
    0.884097E-01    0.164290E-05   -0.402393E-21
    0.884087E-01    0.144808E-05   -0.354676E-21
    0.884078E-01    0.127615E-05   -0.312566E-21
    0.884071E-01    0.112507E-05   -0.275562E-21
    0.884064E-01    0.993000E-06   -0.243215E-21
    0.884185E-01    0.375098E-05   -0.918725E-21
    0.884166E-01    0.330642E-05   -0.809839E-21
    0.884149E-01    0.291497E-05   -0.713963E-21
    0.884133E-01    0.256969E-05   -0.629392E-21
    0.884120E-01    0.226523E-05   -0.554822E-21
    0.884108E-01    0.199706E-05   -0.489138E-21
    0.884097E-01    0.176075E-05   -0.431260E-21
    0.884087E-01    0.155228E-05   -0.380198E-21
    0.884079E-01    0.136858E-05   -0.335205E-21
    0.884071E-01    0.120734E-05   -0.295713E-21
    0.884064E-01    0.106632E-05   -0.261172E-21
    0.884185E-01    0.399350E-05   -0.978125E-21
    0.884166E-01    0.352035E-05   -0.862237E-21
    0.884149E-01    0.310406E-05   -0.760275E-21
    0.884133E-01    0.273710E-05   -0.670396E-21
    0.884120E-01    0.241330E-05   -0.591088E-21
    0.884108E-01    0.212777E-05   -0.521153E-21
    0.884097E-01    0.187615E-05   -0.459524E-21
    0.884087E-01    0.165434E-05   -0.405196E-21
    0.884079E-01    0.145912E-05   -0.357380E-21
    0.884071E-01    0.128793E-05   -0.315452E-21
    0.884064E-01    0.113814E-05   -0.278764E-21
    0.884185E-01    0.422975E-05   -0.103599E-20
    0.884166E-01    0.372893E-05   -0.913323E-21
    0.884149E-01    0.328854E-05   -0.805460E-21
    0.884133E-01    0.290050E-05   -0.710418E-21
    0.884120E-01    0.255787E-05   -0.626498E-21
    0.884108E-01    0.225546E-05   -0.552428E-21
    0.884097E-01    0.198894E-05   -0.487150E-21
    0.884088E-01    0.175414E-05   -0.429640E-21
    0.884079E-01    0.154767E-05   -0.379071E-21
    0.884071E-01    0.136677E-05   -0.334763E-21
    0.884065E-01    0.120844E-05   -0.295982E-21
    0.884184E-01    0.445953E-05   -0.109227E-20
    0.884165E-01    0.393194E-05   -0.963048E-21
    0.884149E-01    0.346823E-05   -0.849472E-21
    0.884133E-01    0.305977E-05   -0.749426E-21
    0.884120E-01    0.269883E-05   -0.661023E-21
    0.884108E-01    0.238001E-05   -0.582935E-21
    0.884097E-01    0.209903E-05   -0.514114E-21
    0.884088E-01    0.185161E-05   -0.453514E-21
    0.884079E-01    0.163420E-05   -0.400263E-21
    0.884072E-01    0.144385E-05   -0.353640E-21
    0.884065E-01    0.127718E-05   -0.312820E-21
    0.884184E-01    0.468265E-05   -0.114692E-20
    0.884165E-01    0.412921E-05   -0.101136E-20
    0.884148E-01    0.364297E-05   -0.892271E-21
    0.884133E-01    0.321475E-05   -0.787388E-21
    0.884120E-01    0.283609E-05   -0.694641E-21
    0.884108E-01    0.250134E-05   -0.612652E-21
    0.884097E-01    0.220634E-05   -0.540398E-21
    0.884088E-01    0.194669E-05   -0.476800E-21
    0.884079E-01    0.171863E-05   -0.420944E-21
    0.884072E-01    0.151910E-05   -0.372073E-21
    0.884065E-01    0.134434E-05   -0.329269E-21
    0.884183E-01    0.489889E-05   -0.119988E-20
    0.884165E-01    0.432051E-05   -0.105822E-20
    0.884148E-01    0.381257E-05   -0.933811E-21
    0.884133E-01    0.336535E-05   -0.824274E-21
    0.884120E-01    0.296956E-05   -0.727331E-21
    0.884108E-01    0.261936E-05   -0.641557E-21
    0.884097E-01    0.231078E-05   -0.565977E-21
    0.884088E-01    0.203927E-05   -0.499477E-21
    0.884079E-01    0.180092E-05   -0.441097E-21
    0.884072E-01    0.159249E-05   -0.390048E-21
    0.884065E-01    0.140987E-05   -0.345319E-21
    0.884183E-01    0.510804E-05   -0.125111E-20
    0.884164E-01    0.450571E-05   -0.110358E-20
    0.884148E-01    0.397695E-05   -0.974072E-21
    0.884133E-01    0.351145E-05   -0.860057E-21
    0.884120E-01    0.309908E-05   -0.759056E-21
    0.884108E-01    0.273390E-05   -0.669613E-21
    0.884097E-01    0.241218E-05   -0.590815E-21
    0.884088E-01    0.212922E-05   -0.521509E-21
    0.884079E-01    0.188091E-05   -0.460691E-21
    0.884072E-01    0.166393E-05   -0.407547E-21
    0.884065E-01    0.147372E-05   -0.360957E-21
    0.884182E-01    0.531892E-05   -0.130276E-20
    0.884163E-01    0.469542E-05   -0.115005E-20
    0.884147E-01    0.414302E-05   -0.101475E-20
    0.884132E-01    0.365284E-05   -0.894688E-21
    0.884119E-01    0.322615E-05   -0.790180E-21
    0.884107E-01    0.285276E-05   -0.698725E-21
    0.884097E-01    0.251915E-05   -0.617014E-21
    0.884087E-01    0.222065E-05   -0.543902E-21
    0.884079E-01    0.195894E-05   -0.479803E-21
    0.884072E-01    0.173238E-05   -0.424312E-21
    0.884065E-01    0.153477E-05   -0.375910E-21
</DataArray>
</PointData>
<CellData>
<DataArray Name="DP" type="Float64" format="ascii" NumberOfComponents="1">
      0.000000E+0000
      0.000000E+0000
      0.000000E+0000
      0.000000E+0000
      0.000000E+0000
      0.000000E+0000
      0.000000E+0000
      0.000000E+0000
      0.000000E+0000
      0.000000E+0000
      0.000000E+0000
      0.000000E+0000
      0.000000E+0000
      0.000000E+0000
      0.000000E+0000
      0.000000E+0000
      0.000000E+0000
      0.000000E+0000
      0.000000E+0000
      0.000000E+0000
      0.000000E+0000
      0.000000E+0000
      0.000000E+0000
      0.000000E+0000
      0.000000E+0000
      0.000000E+0000
      0.000000E+0000
      0.000000E+0000
      0.000000E+0000
      0.000000E+0000
      0.000000E+0000
      0.000000E+0000
      0.000000E+0000
      0.000000E+0000
      0.000000E+0000
      0.000000E+0000
      0.000000E+0000
      0.000000E+0000
      0.000000E+0000
      0.000000E+0000
      0.000000E+0000
      0.000000E+0000
      0.000000E+0000
      0.000000E+0000
      0.000000E+0000
      0.000000E+0000
      0.000000E+0000
      0.000000E+0000
      0.000000E+0000
      0.000000E+0000
      0.000000E+0000
      0.000000E+0000
      0.000000E+0000
      0.000000E+0000
      0.000000E+0000
      0.000000E+0000
      0.000000E+0000
      0.000000E+0000
      0.000000E+0000
      0.000000E+0000
      0.000000E+0000
      0.000000E+0000
      0.000000E+0000
      0.000000E+0000
      0.000000E+0000
      0.000000E+0000
      0.000000E+0000
      0.000000E+0000
      0.000000E+0000
      0.000000E+0000
      0.000000E+0000
      0.000000E+0000
      0.000000E+0000
      0.000000E+0000
      0.000000E+0000
      0.000000E+0000
      0.000000E+0000
      0.000000E+0000
      0.000000E+0000
      0.000000E+0000
      0.000000E+0000
      0.000000E+0000
      0.000000E+0000
      0.000000E+0000
      0.000000E+0000
      0.000000E+0000
      0.000000E+0000
      0.000000E+0000
      0.000000E+0000
      0.000000E+0000
      0.000000E+0000
      0.000000E+0000
      0.000000E+0000
      0.000000E+0000
      0.000000E+0000
      0.000000E+0000
      0.000000E+0000
      0.000000E+0000
      0.000000E+0000
      0.000000E+0000
</DataArray>
<DataArray Name="P" type="Float64" format="ascii" NumberOfComponents="1">
     -0.142486E+0000
     -0.153160E+0000
     -0.163943E+0000
     -0.174834E+0000
     -0.185834E+0000
     -0.196943E+0000
     -0.208163E+0000
     -0.219496E+0000
     -0.230943E+0000
     -0.242505E+0000
     -0.142486E+0000
     -0.153161E+0000
     -0.163944E+0000
     -0.174835E+0000
     -0.185834E+0000
     -0.196943E+0000
     -0.208163E+0000
     -0.219496E+0000
     -0.230943E+0000
     -0.242506E+0000
     -0.142487E+0000
     -0.153162E+0000
     -0.163944E+0000
     -0.174835E+0000
     -0.185835E+0000
     -0.196943E+0000
     -0.208163E+0000
     -0.219496E+0000
     -0.230943E+0000
     -0.242506E+0000
     -0.142488E+0000
     -0.153162E+0000
     -0.163945E+0000
     -0.174836E+0000
     -0.185835E+0000
     -0.196944E+0000
     -0.208164E+0000
     -0.219497E+0000
     -0.230943E+0000
     -0.242506E+0000
     -0.142488E+0000
     -0.153163E+0000
     -0.163946E+0000
     -0.174836E+0000
     -0.185835E+0000
     -0.196944E+0000
     -0.208164E+0000
     -0.219497E+0000
     -0.230944E+0000
     -0.242506E+0000
     -0.142489E+0000
     -0.153164E+0000
     -0.163946E+0000
     -0.174837E+0000
     -0.185836E+0000
     -0.196944E+0000
     -0.208164E+0000
     -0.219497E+0000
     -0.230944E+0000
     -0.242506E+0000
     -0.142489E+0000
     -0.153164E+0000
     -0.163947E+0000
     -0.174837E+0000
     -0.185836E+0000
     -0.196945E+0000
     -0.208164E+0000
     -0.219497E+0000
     -0.230944E+0000
     -0.242506E+0000
     -0.142489E+0000
     -0.153164E+0000
     -0.163947E+0000
     -0.174838E+0000
     -0.185837E+0000
     -0.196945E+0000
     -0.208165E+0000
     -0.219497E+0000
     -0.230944E+0000
     -0.242506E+0000
     -0.142490E+0000
     -0.153165E+0000
     -0.163948E+0000
     -0.174838E+0000
     -0.185837E+0000
     -0.196945E+0000
     -0.208165E+0000
     -0.219497E+0000
     -0.230944E+0000
     -0.242506E+0000
     -0.142490E+0000
     -0.153165E+0000
     -0.163948E+0000
     -0.174839E+0000
     -0.185837E+0000
     -0.196946E+0000
     -0.208165E+0000
     -0.219497E+0000
     -0.230944E+0000
     -0.242506E+0000
</DataArray>
<DataArray Name="RHO" type="Float64" format="ascii" NumberOfComponents="1">
      0.117197E+0001
      0.117197E+0001
      0.117197E+0001
      0.117197E+0001
      0.117197E+0001
      0.117197E+0001
      0.117197E+0001
      0.117197E+0001
      0.117197E+0001
      0.117197E+0001
      0.117197E+0001
      0.117197E+0001
      0.117197E+0001
      0.117197E+0001
      0.117197E+0001
      0.117197E+0001
      0.117197E+0001
      0.117197E+0001
      0.117197E+0001
      0.117197E+0001
      0.117197E+0001
      0.117197E+0001
      0.117197E+0001
      0.117197E+0001
      0.117197E+0001
      0.117197E+0001
      0.117197E+0001
      0.117197E+0001
      0.117197E+0001
      0.117197E+0001
      0.117197E+0001
      0.117197E+0001
      0.117197E+0001
      0.117197E+0001
      0.117197E+0001
      0.117197E+0001
      0.117197E+0001
      0.117197E+0001
      0.117197E+0001
      0.117197E+0001
      0.117197E+0001
      0.117197E+0001
      0.117197E+0001
      0.117197E+0001
      0.117197E+0001
      0.117197E+0001
      0.117197E+0001
      0.117197E+0001
      0.117197E+0001
      0.117197E+0001
      0.117197E+0001
      0.117197E+0001
      0.117197E+0001
      0.117197E+0001
      0.117197E+0001
      0.117197E+0001
      0.117197E+0001
      0.117197E+0001
      0.117197E+0001
      0.117197E+0001
      0.117197E+0001
      0.117197E+0001