<?xml version="1.0"?>
<VTKFile type="StructuredGrid" version="0.1" byte_order="LittleEndian">
<StructuredGrid WholeExtent="         170         180           0          10           0           1">
<Piece Extent="         170         180           0          10           0           1">
<Points>
<DataArray NumberOfComponents="3" type="Float64" format="ascii">
    0.112170E+00    0.000000E+00    0.000000E+00
    0.113545E+00    0.000000E+00    0.000000E+00
    0.114934E+00    0.000000E+00    0.000000E+00
    0.116336E+00    0.000000E+00    0.000000E+00
    0.117753E+00    0.000000E+00    0.000000E+00
    0.119184E+00    0.000000E+00    0.000000E+00
    0.120629E+00    0.000000E+00    0.000000E+00
    0.122089E+00    0.000000E+00    0.000000E+00
    0.123563E+00    0.000000E+00    0.000000E+00
    0.125052E+00    0.000000E+00    0.000000E+00
    0.126556E+00    0.000000E+00    0.000000E+00
    0.112170E+00    0.288897E-03    0.000000E+00
    0.113545E+00    0.288897E-03    0.000000E+00
    0.114934E+00    0.288897E-03    0.000000E+00
    0.116336E+00    0.288897E-03    0.000000E+00
    0.117753E+00    0.288897E-03    0.000000E+00
    0.119184E+00    0.288897E-03    0.000000E+00
    0.120629E+00    0.288897E-03    0.000000E+00
    0.122089E+00    0.288897E-03    0.000000E+00
    0.123563E+00    0.288897E-03    0.000000E+00
    0.125052E+00    0.288897E-03    0.000000E+00
    0.126556E+00    0.288897E-03    0.000000E+00
    0.112170E+00    0.572017E-03    0.000000E+00
    0.113545E+00    0.572017E-03    0.000000E+00
    0.114934E+00    0.572017E-03    0.000000E+00
    0.116336E+00    0.572017E-03    0.000000E+00
    0.117753E+00    0.572017E-03    0.000000E+00
    0.119184E+00    0.572017E-03    0.000000E+00
    0.120629E+00    0.572017E-03    0.000000E+00
    0.122089E+00    0.572017E-03    0.000000E+00
    0.123563E+00    0.572017E-03    0.000000E+00
    0.125052E+00    0.572017E-03    0.000000E+00
    0.126556E+00    0.572017E-03    0.000000E+00
    0.112170E+00    0.849473E-03    0.000000E+00
    0.113545E+00    0.849473E-03    0.000000E+00
    0.114934E+00    0.849473E-03    0.000000E+00
    0.116336E+00    0.849473E-03    0.000000E+00
    0.117753E+00    0.849473E-03    0.000000E+00
    0.119184E+00    0.849473E-03    0.000000E+00
    0.120629E+00    0.849473E-03    0.000000E+00
    0.122089E+00    0.849473E-03    0.000000E+00
    0.123563E+00    0.849473E-03    0.000000E+00
    0.125052E+00    0.849473E-03    0.000000E+00
    0.126556E+00    0.849473E-03    0.000000E+00
    0.112170E+00    0.112138E-02    0.000000E+00
    0.113545E+00    0.112138E-02    0.000000E+00
    0.114934E+00    0.112138E-02    0.000000E+00
    0.116336E+00    0.112138E-02    0.000000E+00
    0.117753E+00    0.112138E-02    0.000000E+00
    0.119184E+00    0.112138E-02    0.000000E+00
    0.120629E+00    0.112138E-02    0.000000E+00
    0.122089E+00    0.112138E-02    0.000000E+00
    0.123563E+00    0.112138E-02    0.000000E+00
    0.125052E+00    0.112138E-02    0.000000E+00
    0.126556E+00    0.112138E-02    0.000000E+00
    0.112170E+00    0.138785E-02    0.000000E+00
    0.113545E+00    0.138785E-02    0.000000E+00
    0.114934E+00    0.138785E-02    0.000000E+00
    0.116336E+00    0.138785E-02    0.000000E+00
    0.117753E+00    0.138785E-02    0.000000E+00
    0.119184E+00    0.138785E-02    0.000000E+00
    0.120629E+00    0.138785E-02    0.000000E+00
    0.122089E+00    0.138785E-02    0.000000E+00
    0.123563E+00    0.138785E-02    0.000000E+00
    0.125052E+00    0.138785E-02    0.000000E+00
    0.126556E+00    0.138785E-02    0.000000E+00
    0.112170E+00    0.164899E-02    0.000000E+00
    0.113545E+00    0.164899E-02    0.000000E+00
    0.114934E+00    0.164899E-02    0.000000E+00
    0.116336E+00    0.164899E-02    0.000000E+00
    0.117753E+00    0.164899E-02    0.000000E+00
    0.119184E+00    0.164899E-02    0.000000E+00
    0.120629E+00    0.164899E-02    0.000000E+00
    0.122089E+00    0.164899E-02    0.000000E+00
    0.123563E+00    0.164899E-02    0.000000E+00
    0.125052E+00    0.164899E-02    0.000000E+00
    0.126556E+00    0.164899E-02    0.000000E+00
    0.112170E+00    0.190491E-02    0.000000E+00
    0.113545E+00    0.190491E-02    0.000000E+00
    0.114934E+00    0.190491E-02    0.000000E+00
    0.116336E+00    0.190491E-02    0.000000E+00
    0.117753E+00    0.190491E-02    0.000000E+00
    0.119184E+00    0.190491E-02    0.000000E+00
    0.120629E+00    0.190491E-02    0.000000E+00
    0.122089E+00    0.190491E-02    0.000000E+00
    0.123563E+00    0.190491E-02    0.000000E+00
    0.125052E+00    0.190491E-02    0.000000E+00
    0.126556E+00    0.190491E-02    0.000000E+00
    0.112170E+00    0.215571E-02    0.000000E+00
    0.113545E+00    0.215571E-02    0.000000E+00
    0.114934E+00    0.215571E-02    0.000000E+00
    0.116336E+00    0.215571E-02    0.000000E+00
    0.117753E+00    0.215571E-02    0.000000E+00
    0.119184E+00    0.215571E-02    0.000000E+00
    0.120629E+00    0.215571E-02    0.000000E+00
    0.122089E+00    0.215571E-02    0.000000E+00
    0.123563E+00    0.215571E-02    0.000000E+00
    0.125052E+00    0.215571E-02    0.000000E+00
    0.126556E+00    0.215571E-02    0.000000E+00
    0.112170E+00    0.240149E-02    0.000000E+00
    0.113545E+00    0.240149E-02    0.000000E+00
    0.114934E+00    0.240149E-02    0.000000E+00
    0.116336E+00    0.240149E-02    0.000000E+00
    0.117753E+00    0.240149E-02    0.000000E+00
    0.119184E+00    0.240149E-02    0.000000E+00
    0.120629E+00    0.240149E-02    0.000000E+00
    0.122089E+00    0.240149E-02    0.000000E+00
    0.123563E+00    0.240149E-02    0.000000E+00
    0.125052E+00    0.240149E-02    0.000000E+00
    0.126556E+00    0.240149E-02    0.000000E+00
    0.112170E+00    0.264236E-02    0.000000E+00
    0.113545E+00    0.264236E-02    0.000000E+00
    0.114934E+00    0.264236E-02    0.000000E+00
    0.116336E+00    0.264236E-02    0.000000E+00
    0.117753E+00    0.264236E-02    0.000000E+00
    0.119184E+00    0.264236E-02    0.000000E+00
    0.120629E+00    0.264236E-02    0.000000E+00
    0.122089E+00    0.264236E-02    0.000000E+00
    0.123563E+00    0.264236E-02    0.000000E+00
    0.125052E+00    0.264236E-02    0.000000E+00
    0.126556E+00    0.264236E-02    0.000000E+00
    0.112170E+00    0.000000E+00    0.160000E-02
    0.113545E+00    0.000000E+00    0.160000E-02
    0.114934E+00    0.000000E+00    0.160000E-02
    0.116336E+00    0.000000E+00    0.160000E-02
    0.117753E+00    0.000000E+00    0.160000E-02
    0.119184E+00    0.000000E+00    0.160000E-02
    0.120629E+00    0.000000E+00    0.160000E-02
    0.122089E+00    0.000000E+00    0.160000E-02
    0.123563E+00    0.000000E+00    0.160000E-02
    0.125052E+00    0.000000E+00    0.160000E-02
    0.126556E+00    0.000000E+00    0.160000E-02
    0.112170E+00    0.288897E-03    0.160000E-02
    0.113545E+00    0.288897E-03    0.160000E-02
    0.114934E+00    0.288897E-03    0.160000E-02
    0.116336E+00    0.288897E-03    0.160000E-02
    0.117753E+00    0.288897E-03    0.160000E-02
    0.119184E+00    0.288897E-03    0.160000E-02
    0.120629E+00    0.288897E-03    0.160000E-02
    0.122089E+00    0.288897E-03    0.160000E-02
    0.123563E+00    0.288897E-03    0.160000E-02
    0.125052E+00    0.288897E-03    0.160000E-02
    0.126556E+00    0.288897E-03    0.160000E-02
    0.112170E+00    0.572017E-03    0.160000E-02
    0.113545E+00    0.572017E-03    0.160000E-02
    0.114934E+00    0.572017E-03    0.160000E-02
    0.116336E+00    0.572017E-03    0.160000E-02
    0.117753E+00    0.572017E-03    0.160000E-02
    0.119184E+00    0.572017E-03    0.160000E-02
    0.120629E+00    0.572017E-03    0.160000E-02
    0.122089E+00    0.572017E-03    0.160000E-02
    0.123563E+00    0.572017E-03    0.160000E-02
    0.125052E+00    0.572017E-03    0.160000E-02
    0.126556E+00    0.572017E-03    0.160000E-02
    0.112170E+00    0.849473E-03    0.160000E-02
    0.113545E+00    0.849473E-03    0.160000E-02
    0.114934E+00    0.849473E-03    0.160000E-02
    0.116336E+00    0.849473E-03    0.160000E-02
    0.117753E+00    0.849473E-03    0.160000E-02
    0.119184E+00    0.849473E-03    0.160000E-02
    0.120629E+00    0.849473E-03    0.160000E-02
    0.122089E+00    0.849473E-03    0.160000E-02
    0.123563E+00    0.849473E-03    0.160000E-02
    0.125052E+00    0.849473E-03    0.160000E-02
    0.126556E+00    0.849473E-03    0.160000E-02
    0.112170E+00    0.112138E-02    0.160000E-02
    0.113545E+00    0.112138E-02    0.160000E-02
    0.114934E+00    0.112138E-02    0.160000E-02
    0.116336E+00    0.112138E-02    0.160000E-02
    0.117753E+00    0.112138E-02    0.160000E-02
    0.119184E+00    0.112138E-02    0.160000E-02
    0.120629E+00    0.112138E-02    0.160000E-02
    0.122089E+00    0.112138E-02    0.160000E-02
    0.123563E+00    0.112138E-02    0.160000E-02
    0.125052E+00    0.112138E-02    0.160000E-02
    0.126556E+00    0.112138E-02    0.160000E-02
    0.112170E+00    0.138785E-02    0.160000E-02
    0.113545E+00    0.138785E-02    0.160000E-02
    0.114934E+00    0.138785E-02    0.160000E-02
    0.116336E+00    0.138785E-02    0.160000E-02
    0.117753E+00    0.138785E-02    0.160000E-02
    0.119184E+00    0.138785E-02    0.160000E-02
    0.120629E+00    0.138785E-02    0.160000E-02
    0.122089E+00    0.138785E-02    0.160000E-02
    0.123563E+00    0.138785E-02    0.160000E-02
    0.125052E+00    0.138785E-02    0.160000E-02
    0.126556E+00    0.138785E-02    0.160000E-02
    0.112170E+00    0.164899E-02    0.160000E-02
    0.113545E+00    0.164899E-02    0.160000E-02
    0.114934E+00    0.164899E-02    0.160000E-02
    0.116336E+00    0.164899E-02    0.160000E-02
    0.117753E+00    0.164899E-02    0.160000E-02
    0.119184E+00    0.164899E-02    0.160000E-02
    0.120629E+00    0.164899E-02    0.160000E-02
    0.122089E+00    0.164899E-02    0.160000E-02
    0.123563E+00    0.164899E-02    0.160000E-02
    0.125052E+00    0.164899E-02    0.160000E-02
    0.126556E+00    0.164899E-02    0.160000E-02
    0.112170E+00    0.190491E-02    0.160000E-02
    0.113545E+00    0.190491E-02    0.160000E-02
    0.114934E+00    0.190491E-02    0.160000E-02
    0.116336E+00    0.190491E-02    0.160000E-02
    0.117753E+00    0.190491E-02    0.160000E-02
    0.119184E+00    0.190491E-02    0.160000E-02
    0.120629E+00    0.190491E-02    0.160000E-02
    0.122089E+00    0.190491E-02    0.160000E-02
    0.123563E+00    0.190491E-02    0.160000E-02
    0.125052E+00    0.190491E-02    0.160000E-02
    0.126556E+00    0.190491E-02    0.160000E-02
    0.112170E+00    0.215571E-02    0.160000E-02
    0.113545E+00    0.215571E-02    0.160000E-02
    0.114934E+00    0.215571E-02    0.160000E-02
    0.116336E+00    0.215571E-02    0.160000E-02
    0.117753E+00    0.215571E-02    0.160000E-02
    0.119184E+00    0.215571E-02    0.160000E-02
    0.120629E+00    0.215571E-02    0.160000E-02
    0.122089E+00    0.215571E-02    0.160000E-02
    0.123563E+00    0.215571E-02    0.160000E-02
    0.125052E+00    0.215571E-02    0.160000E-02
    0.126556E+00    0.215571E-02    0.160000E-02
    0.112170E+00    0.240149E-02    0.160000E-02
    0.113545E+00    0.240149E-02    0.160000E-02
    0.114934E+00    0.240149E-02    0.160000E-02
    0.116336E+00    0.240149E-02    0.160000E-02
    0.117753E+00    0.240149E-02    0.160000E-02
    0.119184E+00    0.240149E-02    0.160000E-02
    0.120629E+00    0.240149E-02    0.160000E-02
    0.122089E+00    0.240149E-02    0.160000E-02
    0.123563E+00    0.240149E-02    0.160000E-02
    0.125052E+00    0.240149E-02    0.160000E-02
    0.126556E+00    0.240149E-02    0.160000E-02
    0.112170E+00    0.264236E-02    0.160000E-02
    0.113545E+00    0.264236E-02    0.160000E-02
    0.114934E+00    0.264236E-02    0.160000E-02
    0.116336E+00    0.264236E-02    0.160000E-02
    0.117753E+00    0.264236E-02    0.160000E-02
    0.119184E+00    0.264236E-02    0.160000E-02
    0.120629E+00    0.264236E-02    0.160000E-02
    0.122089E+00    0.264236E-02    0.160000E-02
    0.123563E+00    0.264236E-02    0.160000E-02
    0.125052E+00    0.264236E-02    0.160000E-02
    0.126556E+00    0.264236E-02    0.160000E-02
</DataArray>
</Points>
<PointData>
<DataArray Name="Velocity" type="Float64" format="ascii" NumberOfComponents="3">
    0.884007E-01    0.000000E+00    0.000000E+00
    0.884009E-01    0.000000E+00    0.000000E+00
    0.884010E-01    0.000000E+00    0.000000E+00
    0.884012E-01    0.000000E+00    0.000000E+00
    0.884013E-01    0.000000E+00    0.000000E+00
    0.884014E-01    0.000000E+00    0.000000E+00
    0.884016E-01    0.000000E+00    0.000000E+00
    0.884017E-01    0.000000E+00    0.000000E+00
    0.884017E-01    0.000000E+00    0.000000E+00
    0.884018E-01    0.000000E+00    0.000000E+00
    0.884019E-01    0.000000E+00    0.000000E+00
    0.884007E-01   -0.200615E-07    0.000000E+00
    0.884009E-01   -0.184040E-07    0.000000E+00
    0.884010E-01   -0.165907E-07    0.000000E+00
    0.884012E-01   -0.149480E-07    0.000000E+00
    0.884013E-01   -0.134562E-07    0.000000E+00
    0.884014E-01   -0.120243E-07    0.000000E+00
    0.884016E-01   -0.107344E-07    0.000000E+00
    0.884017E-01   -0.963065E-08    0.000000E+00
    0.884017E-01   -0.867331E-08    0.000000E+00
    0.884018E-01   -0.779582E-08    0.000000E+00
    0.884019E-01   -0.697172E-08    0.000000E+00
    0.884007E-01   -0.396623E-07    0.000000E+00
    0.884009E-01   -0.363835E-07    0.000000E+00
    0.884010E-01   -0.328233E-07    0.000000E+00
    0.884012E-01   -0.295674E-07    0.000000E+00
    0.884013E-01   -0.266273E-07    0.000000E+00
    0.884014E-01   -0.238080E-07    0.000000E+00
    0.884016E-01   -0.212518E-07    0.000000E+00
    0.884017E-01   -0.190615E-07    0.000000E+00
    0.884018E-01   -0.171579E-07    0.000000E+00
    0.884018E-01   -0.154232E-07    0.000000E+00
    0.884019E-01   -0.137954E-07    0.000000E+00
    0.884007E-01   -0.588211E-07    0.000000E+00
    0.884009E-01   -0.539537E-07    0.000000E+00
    0.884010E-01   -0.486972E-07    0.000000E+00
    0.884012E-01   -0.438643E-07    0.000000E+00
    0.884013E-01   -0.395143E-07    0.000000E+00
    0.884014E-01   -0.353446E-07    0.000000E+00
    0.884016E-01   -0.315442E-07    0.000000E+00
    0.884017E-01   -0.282888E-07    0.000000E+00
    0.884018E-01   -0.254566E-07    0.000000E+00
    0.884018E-01   -0.228838E-07    0.000000E+00
    0.884019E-01   -0.204726E-07    0.000000E+00
    0.884007E-01   -0.775625E-07    0.000000E+00
    0.884009E-01   -0.711351E-07    0.000000E+00
    0.884010E-01   -0.642146E-07    0.000000E+00
    0.884012E-01   -0.578479E-07    0.000000E+00
    0.884013E-01   -0.521195E-07    0.000000E+00
    0.884014E-01   -0.466282E-07    0.000000E+00
    0.884016E-01   -0.416044E-07    0.000000E+00
    0.884017E-01   -0.373093E-07    0.000000E+00
    0.884018E-01   -0.335732E-07    0.000000E+00
    0.884018E-01   -0.301794E-07    0.000000E+00
    0.884019E-01   -0.270048E-07    0.000000E+00
    0.884007E-01   -0.958917E-07    0.000000E+00
    0.884009E-01   -0.879323E-07    0.000000E+00
    0.884010E-01   -0.793720E-07    0.000000E+00
    0.884012E-01   -0.715180E-07    0.000000E+00
    0.884013E-01   -0.644432E-07    0.000000E+00
    0.884014E-01   -0.576564E-07    0.000000E+00
    0.884016E-01   -0.514285E-07    0.000000E+00
    0.884017E-01   -0.461213E-07    0.000000E+00
    0.884018E-01   -0.415090E-07    0.000000E+00
    0.884018E-01   -0.373080E-07    0.000000E+00
    0.884019E-01   -0.333917E-07    0.000000E+00
    0.884007E-01   -0.113811E-06    0.000000E+00
    0.884009E-01   -0.104348E-06    0.000000E+00
    0.884010E-01   -0.941654E-07    0.000000E+00
    0.884012E-01   -0.848735E-07    0.000000E+00
    0.884013E-01   -0.764865E-07    0.000000E+00
    0.884015E-01   -0.684281E-07    0.000000E+00
    0.884016E-01   -0.610141E-07    0.000000E+00
    0.884017E-01   -0.547236E-07    0.000000E+00
    0.884018E-01   -0.492663E-07    0.000000E+00
    0.884018E-01   -0.442674E-07    0.000000E+00
    0.884019E-01   -0.396324E-07    0.000000E+00
    0.884007E-01   -0.131325E-06    0.000000E+00
    0.884009E-01   -0.120386E-06    0.000000E+00
    0.884010E-01   -0.108591E-06    0.000000E+00
    0.884012E-01   -0.979144E-07    0.000000E+00
    0.884013E-01   -0.882517E-07    0.000000E+00
    0.884015E-01   -0.789438E-07    0.000000E+00
    0.884016E-01   -0.703597E-07    0.000000E+00
    0.884017E-01   -0.631157E-07    0.000000E+00
    0.884018E-01   -0.568487E-07    0.000000E+00
    0.884018E-01   -0.510559E-07    0.000000E+00
    0.884019E-01   -0.457265E-07    0.000000E+00
    0.884007E-01   -0.148438E-06    0.000000E+00
    0.884009E-01   -0.136050E-06    0.000000E+00
    0.884010E-01   -0.122646E-06    0.000000E+00
    0.884012E-01   -0.110643E-06    0.000000E+00
    0.884013E-01   -0.997432E-07    0.000000E+00
    0.884015E-01   -0.892051E-07    0.000000E+00
    0.884016E-01   -0.794650E-07    0.000000E+00
    0.884017E-01   -0.712980E-07    0.000000E+00
    0.884018E-01   -0.642607E-07    0.000000E+00
    0.884018E-01   -0.576722E-07    0.000000E+00
    0.884019E-01   -0.516734E-07    0.000000E+00
    0.884007E-01   -0.165254E-06    0.000000E+00
    0.884009E-01   -0.151569E-06    0.000000E+00
    0.884010E-01   -0.136324E-06    0.000000E+00
    0.884012E-01   -0.123027E-06    0.000000E+00
    0.884013E-01   -0.110995E-06    0.000000E+00
    0.884015E-01   -0.991984E-07    0.000000E+00
    0.884016E-01   -0.883097E-07    0.000000E+00
    0.884017E-01   -0.793125E-07    0.000000E+00
    0.884018E-01   -0.715332E-07    0.000000E+00
    0.884018E-01   -0.639796E-07    0.000000E+00
    0.884019E-01   -0.574863E-07    0.000000E+00
    0.884007E-01   -0.177161E-06    0.000000E+00
    0.884009E-01   -0.160940E-06    0.000000E+00
    0.884011E-01   -0.146835E-06    0.000000E+00
    0.884012E-01   -0.131468E-06    0.000000E+00
    0.884013E-01   -0.119095E-06    0.000000E+00
    0.884015E-01   -0.108647E-06    0.000000E+00
    0.884016E-01   -0.981170E-07    0.000000E+00
    0.884017E-01   -0.875399E-07    0.000000E+00
    0.884018E-01   -0.785158E-07    0.000000E+00
    0.884018E-01   -0.698493E-07    0.000000E+00
    0.884019E-01   -0.622254E-07    0.000000E+00
    0.884007E-01    0.000000E+00    0.000000E+00
    0.884009E-01    0.000000E+00    0.000000E+00
    0.884010E-01    0.000000E+00    0.000000E+00
    0.884012E-01    0.000000E+00    0.000000E+00
    0.884013E-01    0.000000E+00    0.000000E+00
    0.884014E-01    0.000000E+00    0.000000E+00
    0.884016E-01    0.000000E+00    0.000000E+00
    0.884017E-01    0.000000E+00    0.000000E+00
    0.884017E-01    0.000000E+00    0.000000E+00
    0.884018E-01    0.000000E+00    0.000000E+00
    0.884019E-01    0.000000E+00    0.000000E+00
    0.884007E-01   -0.203087E-07    0.497420E-23
    0.884009E-01   -0.184040E-07    0.450768E-23
    0.884010E-01   -0.165907E-07    0.406355E-23
    0.884012E-01   -0.149480E-07    0.366121E-23
    0.884013E-01   -0.134562E-07    0.329582E-23
    0.884014E-01   -0.120243E-07    0.294510E-23
    0.884016E-01   -0.107344E-07    0.262916E-23
    0.884017E-01   -0.963065E-08    0.235883E-23
    0.884017E-01   -0.867331E-08    0.212435E-23
    0.884018E-01   -0.779582E-08    0.190942E-23
    0.884019E-01   -0.697172E-08    0.170758E-23
    0.884007E-01   -0.401620E-07    0.983685E-23
    0.884009E-01   -0.363835E-07    0.891138E-23
    0.884010E-01   -0.328233E-07    0.803940E-23
    0.884012E-01   -0.295674E-07    0.724192E-23
    0.884013E-01   -0.266273E-07    0.652180E-23
    0.884014E-01   -0.238080E-07    0.583128E-23
    0.884016E-01   -0.212518E-07    0.520518E-23
    0.884017E-01   -0.190615E-07    0.466871E-23
    0.884018E-01   -0.171579E-07    0.420247E-23
    0.884018E-01   -0.154232E-07    0.377759E-23
    0.884019E-01   -0.137954E-07    0.337891E-23
    0.884007E-01   -0.595717E-07    0.145909E-22
    0.884009E-01   -0.539537E-07    0.132148E-22
    0.884010E-01   -0.486972E-07    0.119274E-22
    0.884012E-01   -0.438643E-07    0.107437E-22
    0.884013E-01   -0.395143E-07    0.967821E-23
    0.884014E-01   -0.353446E-07    0.865693E-23
    0.884016E-01   -0.315442E-07    0.772611E-23
    0.884017E-01   -0.282888E-07    0.692876E-23
    0.884018E-01   -0.254566E-07    0.623508E-23
    0.884018E-01   -0.228838E-07    0.560491E-23
    0.884019E-01   -0.204726E-07    0.501433E-23
    0.884007E-01   -0.785553E-07    0.192405E-22
    0.884009E-01   -0.711351E-07    0.174231E-22
    0.884010E-01   -0.642146E-07    0.157280E-22
    0.884012E-01   -0.578479E-07    0.141687E-22
    0.884013E-01   -0.521195E-07    0.127656E-22
    0.884014E-01   -0.466282E-07    0.114206E-22
    0.884016E-01   -0.416044E-07    0.101901E-22
    0.884017E-01   -0.373093E-07    0.913816E-23
    0.884018E-01   -0.335732E-07    0.822306E-23
    0.884018E-01   -0.301794E-07    0.739181E-23
    0.884019E-01   -0.270048E-07    0.661428E-23
    0.884007E-01   -0.971147E-07    0.237862E-22
    0.884009E-01   -0.879323E-07    0.215372E-22
    0.884010E-01   -0.793720E-07    0.194405E-22
    0.884012E-01   -0.715180E-07    0.175169E-22
    0.884013E-01   -0.644432E-07    0.157840E-22
    0.884014E-01   -0.576564E-07    0.141217E-22
    0.884016E-01   -0.514285E-07    0.125964E-22
    0.884017E-01   -0.461213E-07    0.112965E-22
    0.884018E-01   -0.415090E-07    0.101668E-22
    0.884018E-01   -0.373080E-07    0.913782E-23
    0.884019E-01   -0.333917E-07    0.817860E-23
    0.884007E-01   -0.115250E-06    0.282282E-22
    0.884009E-01   -0.104348E-06    0.255580E-22
    0.884010E-01   -0.941654E-07    0.230639E-22
    0.884012E-01   -0.848735E-07    0.207880E-22
    0.884013E-01   -0.764865E-07    0.187338E-22
    0.884015E-01   -0.684281E-07    0.167601E-22
    0.884016E-01   -0.610141E-07    0.149441E-22
    0.884017E-01   -0.547236E-07    0.134034E-22
    0.884018E-01   -0.492663E-07    0.120668E-22
    0.884018E-01   -0.442674E-07    0.108424E-22
    0.884019E-01   -0.396324E-07    0.970714E-23
    0.884007E-01   -0.132963E-06    0.325666E-22
    0.884009E-01   -0.120386E-06    0.294861E-22
    0.884010E-01   -0.108591E-06    0.265972E-22
    0.884012E-01   -0.979144E-07    0.239821E-22
    0.884013E-01   -0.882517E-07    0.216154E-22
    0.884015E-01   -0.789438E-07    0.193357E-22
    0.884016E-01   -0.703597E-07    0.172332E-22
    0.884017E-01   -0.631157E-07    0.154589E-22
    0.884018E-01   -0.568487E-07    0.139239E-22
    0.884018E-01   -0.510559E-07    0.125051E-22
    0.884019E-01   -0.457265E-07    0.111998E-22
    0.884007E-01   -0.150255E-06    0.368019E-22
    0.884009E-01   -0.136050E-06    0.333227E-22
    0.884010E-01   -0.122646E-06    0.300396E-22
    0.884012E-01   -0.110643E-06    0.270997E-22
    0.884013E-01   -0.997432E-07    0.244300E-22
    0.884015E-01   -0.892051E-07    0.218490E-22
    0.884016E-01   -0.794650E-07    0.194633E-22
    0.884017E-01   -0.712980E-07    0.174630E-22
    0.884018E-01   -0.642607E-07    0.157393E-22
    0.884018E-01   -0.576722E-07    0.141256E-22
    0.884019E-01   -0.516734E-07    0.126563E-22
    0.884007E-01   -0.167138E-06    0.409371E-22
    0.884009E-01   -0.151569E-06    0.371236E-22
    0.884010E-01   -0.136324E-06    0.333897E-22
    0.884012E-01   -0.123027E-06    0.301329E-22
    0.884013E-01   -0.110995E-06    0.271860E-22
    0.884015E-01   -0.991984E-07    0.242966E-22
    0.884016E-01   -0.883097E-07    0.216296E-22
    0.884017E-01   -0.793125E-07    0.194260E-22
    0.884018E-01   -0.715332E-07    0.175206E-22
    0.884018E-01   -0.639796E-07    0.156705E-22
    0.884019E-01   -0.574863E-07    0.140801E-22
    0.884007E-01   -0.180709E-06    0.442608E-22
    0.884009E-01   -0.160940E-06    0.394189E-22
    0.884011E-01   -0.146835E-06    0.359641E-22
    0.884012E-01   -0.131468E-06    0.322004E-22
    0.884013E-01   -0.119095E-06    0.291698E-22
    0.884015E-01   -0.108647E-06    0.266108E-22
    0.884016E-01   -0.981170E-07    0.240317E-22
    0.884017E-01   -0.875399E-07    0.214411E-22
    0.884018E-01   -0.785158E-07    0.192308E-22
    0.884018E-01   -0.698493E-07    0.171082E-22
    0.884019E-01   -0.622254E-07    0.152408E-22
</DataArray>
</PointData>
<CellData>
<DataArray Name="DP" type="Float64" format="ascii" NumberOfComponents="1">
      0.000000E+0000
      0.000000E+0000
      0.000000E+0000
      0.000000E+0000
      0.000000E+0000
      0.000000E+0000
      0.000000E+0000
      0.000000E+0000
      0.000000E+0000
      0.000000E+0000
      0.000000E+0000
      0.000000E+0000
      0.000000E+0000
      0.000000E+0000
      0.000000E+0000
      0.000000E+0000
      0.000000E+0000
      0.000000E+0000
      0.000000E+0000
      0.000000E+0000
      0.000000E+0000
      0.000000E+0000
      0.000000E+0000
      0.000000E+0000
      0.000000E+0000
      0.000000E+0000
      0.000000E+0000
      0.000000E+0000
      0.000000E+0000
      0.000000E+0000
      0.000000E+0000
      0.000000E+0000
      0.000000E+0000
      0.000000E+0000
      0.000000E+0000
      0.000000E+0000
      0.000000E+0000
      0.000000E+0000
      0.000000E+0000
      0.000000E+0000
      0.000000E+0000
      0.000000E+0000
      0.000000E+0000
      0.000000E+0000
      0.000000E+0000
      0.000000E+0000
      0.000000E+0000
      0.000000E+0000
      0.000000E+0000
      0.000000E+0000
      0.000000E+0000
      0.000000E+0000
      0.000000E+0000
      0.000000E+0000
      0.000000E+0000
      0.000000E+0000
      0.000000E+0000
      0.000000E+0000
      0.000000E+0000
      0.000000E+0000
      0.000000E+0000
      0.000000E+0000
      0.000000E+0000
      0.000000E+0000
      0.000000E+0000
      0.000000E+0000
      0.000000E+0000
      0.000000E+0000
      0.000000E+0000
      0.000000E+0000
      0.000000E+0000
      0.000000E+0000
      0.000000E+0000
      0.000000E+0000
      0.000000E+0000
      0.000000E+0000
      0.000000E+0000
      0.000000E+0000
      0.000000E+0000
      0.000000E+0000
      0.000000E+0000
      0.000000E+0000
      0.000000E+0000
      0.000000E+0000
      0.000000E+0000
      0.000000E+0000
      0.000000E+0000
      0.000000E+0000
      0.000000E+0000
      0.000000E+0000
      0.000000E+0000
      0.000000E+0000
      0.000000E+0000
      0.000000E+0000
      0.000000E+0000
      0.000000E+0000
      0.000000E+0000
      0.000000E+0000
      0.000000E+0000
      0.000000E+0000
</DataArray>
<DataArray Name="P" type="Float64" format="ascii" NumberOfComponents="1">
     -0.664367E+0000
     -0.680255E+0000
     -0.696304E+0000
     -0.712515E+0000
     -0.728889E+0000
     -0.745428E+0000
     -0.762130E+0000
     -0.778998E+0000
     -0.796034E+0000
     -0.813239E+0000
     -0.664367E+0000
     -0.680254E+0000
     -0.696304E+0000
     -0.712515E+0000
     -0.728889E+0000
     -0.745428E+0000
     -0.762130E+0000
     -0.778998E+0000
     -0.796034E+0000
     -0.813239E+0000
     -0.664367E+0000
     -0.680254E+0000
     -0.696304E+0000
     -0.712515E+0000
     -0.728889E+0000
     -0.745428E+0000
     -0.762130E+0000
     -0.778998E+0000
     -0.796034E+0000
     -0.813239E+0000
     -0.664367E+0000
     -0.680254E+0000
     -0.696304E+0000
     -0.712515E+0000
     -0.728889E+0000
     -0.745428E+0000
     -0.762131E+0000
     -0.778998E+0000
     -0.796034E+0000
     -0.813239E+0000
     -0.664367E+0000
     -0.680254E+0000
     -0.696304E+0000
     -0.712515E+0000
     -0.728889E+0000
     -0.745428E+0000
     -0.762131E+0000
     -0.778998E+0000
     -0.796034E+0000
     -0.813239E+0000
     -0.664367E+0000
     -0.680254E+0000
     -0.696303E+0000
     -0.712515E+0000
     -0.728889E+0000
     -0.745428E+0000
     -0.762131E+0000
     -0.778998E+0000
     -0.796034E+0000
     -0.813239E+0000
     -0.664367E+0000
     -0.680254E+0000
     -0.696303E+0000
     -0.712515E+0000
     -0.728889E+0000
     -0.745428E+0000
     -0.762131E+0000
     -0.778998E+0000
     -0.796034E+0000
     -0.813239E+0000
     -0.664367E+0000
     -0.680254E+0000
     -0.696303E+0000
     -0.712514E+0000
     -0.728889E+0000
     -0.745428E+0000
     -0.762131E+0000
     -0.778998E+0000
     -0.796034E+0000
     -0.813239E+0000
     -0.664367E+0000
     -0.680254E+0000
     -0.696303E+0000
     -0.712514E+0000
     -0.728889E+0000
     -0.745428E+0000
     -0.762131E+0000
     -0.778998E+0000
     -0.796034E+0000
     -0.813239E+0000
     -0.664367E+0000
     -0.680254E+0000
     -0.696303E+0000
     -0.712514E+0000
     -0.728889E+0000
     -0.745429E+0000
     -0.762132E+0000
     -0.778998E+0000
     -0.796034E+0000
     -0.813239E+0000
</DataArray>
<DataArray Name="RHO" type="Float64" format="ascii" NumberOfComponents="1">
      0.117197E+0001
      0.117197E+0001
      0.117197E+0001
      0.117197E+0001
      0.117197E+0001
      0.117197E+0001
      0.117197E+0001
      0.117197E+0001
      0.117197E+0001
      0.117197E+0001
      0.117197E+0001
      0.117197E+0001
      0.117197E+0001
      0.117197E+0001
      0.117197E+0001
      0.117197E+0001
      0.117197E+0001
      0.117197E+0001
      0.117197E+0001
      0.117197E+0001
      0.117197E+0001
      0.117197E+0001
      0.117197E+0001
      0.117197E+0001
      0.117197E+0001
      0.117197E+0001
      0.117197E+0001
      0.117197E+0001
      0.117197E+0001
      0.117197E+0001
      0.117197E+0001
      0.117197E+0001
      0.117197E+0001
      0.117197E+0001
      0.117197E+0001
      0.117197E+0001
      0.117197E+0001
      0.117197E+0001
      0.117197E+0001
      0.117197E+0001
      0.117197E+0001
      0.117197E+0001
      0.117197E+0001
      0.117197E+0001
      0.117197E+0001
      0.117197E+0001
      0.117197E+0001
      0.117197E+0001
      0.117197E+0001
      0.117197E+0001
      0.117197E+0001
      0.117197E+0001
      0.117197E+0001
      0.117197E+0001
      0.117197E+0001
      0.117197E+0001
      0.117197E+0001
      0.117197E+0001
      0.117197E+0001
      0.117197E+0001
      0.117197E+0001
      0.117197E+0001