<?xml version="1.0"?>
<VTKFile type="StructuredGrid" version="0.1" byte_order="LittleEndian">
<StructuredGrid WholeExtent="          30          40          30          40           0           1">
<Piece Extent="          30          40          30          40           0           1">
<Points>
<DataArray NumberOfComponents="3" type="Float64" format="ascii">
    0.881185E-02    0.669651E-02    0.000000E+00
    0.915330E-02    0.669651E-02    0.000000E+00
    0.949815E-02    0.669651E-02    0.000000E+00
    0.984646E-02    0.669651E-02    0.000000E+00
    0.101982E-01    0.669651E-02    0.000000E+00
    0.105536E-01    0.669651E-02    0.000000E+00
    0.109124E-01    0.669651E-02    0.000000E+00
    0.112749E-01    0.669651E-02    0.000000E+00
    0.116409E-01    0.669651E-02    0.000000E+00
    0.120107E-01    0.669651E-02    0.000000E+00
    0.123841E-01    0.669651E-02    0.000000E+00
    0.881185E-02    0.690815E-02    0.000000E+00
    0.915330E-02    0.690815E-02    0.000000E+00
    0.949815E-02    0.690815E-02    0.000000E+00
    0.984646E-02    0.690815E-02    0.000000E+00
    0.101982E-01    0.690815E-02    0.000000E+00
    0.105536E-01    0.690815E-02    0.000000E+00
    0.109124E-01    0.690815E-02    0.000000E+00
    0.112749E-01    0.690815E-02    0.000000E+00
    0.116409E-01    0.690815E-02    0.000000E+00
    0.120107E-01    0.690815E-02    0.000000E+00
    0.123841E-01    0.690815E-02    0.000000E+00
    0.881185E-02    0.712614E-02    0.000000E+00
    0.915330E-02    0.712614E-02    0.000000E+00
    0.949815E-02    0.712614E-02    0.000000E+00
    0.984646E-02    0.712614E-02    0.000000E+00
    0.101982E-01    0.712614E-02    0.000000E+00
    0.105536E-01    0.712614E-02    0.000000E+00
    0.109124E-01    0.712614E-02    0.000000E+00
    0.112749E-01    0.712614E-02    0.000000E+00
    0.116409E-01    0.712614E-02    0.000000E+00
    0.120107E-01    0.712614E-02    0.000000E+00
    0.123841E-01    0.712614E-02    0.000000E+00
    0.881185E-02    0.735067E-02    0.000000E+00
    0.915330E-02    0.735067E-02    0.000000E+00
    0.949815E-02    0.735067E-02    0.000000E+00
    0.984646E-02    0.735067E-02    0.000000E+00
    0.101982E-01    0.735067E-02    0.000000E+00
    0.105536E-01    0.735067E-02    0.000000E+00
    0.109124E-01    0.735067E-02    0.000000E+00
    0.112749E-01    0.735067E-02    0.000000E+00
    0.116409E-01    0.735067E-02    0.000000E+00
    0.120107E-01    0.735067E-02    0.000000E+00
    0.123841E-01    0.735067E-02    0.000000E+00
    0.881185E-02    0.758194E-02    0.000000E+00
    0.915330E-02    0.758194E-02    0.000000E+00
    0.949815E-02    0.758194E-02    0.000000E+00
    0.984646E-02    0.758194E-02    0.000000E+00
    0.101982E-01    0.758194E-02    0.000000E+00
    0.105536E-01    0.758194E-02    0.000000E+00
    0.109124E-01    0.758194E-02    0.000000E+00
    0.112749E-01    0.758194E-02    0.000000E+00
    0.116409E-01    0.758194E-02    0.000000E+00
    0.120107E-01    0.758194E-02    0.000000E+00
    0.123841E-01    0.758194E-02    0.000000E+00
    0.881185E-02    0.782015E-02    0.000000E+00
    0.915330E-02    0.782015E-02    0.000000E+00
    0.949815E-02    0.782015E-02    0.000000E+00
    0.984646E-02    0.782015E-02    0.000000E+00
    0.101982E-01    0.782015E-02    0.000000E+00
    0.105536E-01    0.782015E-02    0.000000E+00
    0.109124E-01    0.782015E-02    0.000000E+00
    0.112749E-01    0.782015E-02    0.000000E+00
    0.116409E-01    0.782015E-02    0.000000E+00
    0.120107E-01    0.782015E-02    0.000000E+00
    0.123841E-01    0.782015E-02    0.000000E+00
    0.881185E-02    0.806550E-02    0.000000E+00
    0.915330E-02    0.806550E-02    0.000000E+00
    0.949815E-02    0.806550E-02    0.000000E+00
    0.984646E-02    0.806550E-02    0.000000E+00
    0.101982E-01    0.806550E-02    0.000000E+00
    0.105536E-01    0.806550E-02    0.000000E+00
    0.109124E-01    0.806550E-02    0.000000E+00
    0.112749E-01    0.806550E-02    0.000000E+00
    0.116409E-01    0.806550E-02    0.000000E+00
    0.120107E-01    0.806550E-02    0.000000E+00
    0.123841E-01    0.806550E-02    0.000000E+00
    0.881185E-02    0.831821E-02    0.000000E+00
    0.915330E-02    0.831821E-02    0.000000E+00
    0.949815E-02    0.831821E-02    0.000000E+00
    0.984646E-02    0.831821E-02    0.000000E+00
    0.101982E-01    0.831821E-02    0.000000E+00
    0.105536E-01    0.831821E-02    0.000000E+00
    0.109124E-01    0.831821E-02    0.000000E+00
    0.112749E-01    0.831821E-02    0.000000E+00
    0.116409E-01    0.831821E-02    0.000000E+00
    0.120107E-01    0.831821E-02    0.000000E+00
    0.123841E-01    0.831821E-02    0.000000E+00
    0.881185E-02    0.857851E-02    0.000000E+00
    0.915330E-02    0.857851E-02    0.000000E+00
    0.949815E-02    0.857851E-02    0.000000E+00
    0.984646E-02    0.857851E-02    0.000000E+00
    0.101982E-01    0.857851E-02    0.000000E+00
    0.105536E-01    0.857851E-02    0.000000E+00
    0.109124E-01    0.857851E-02    0.000000E+00
    0.112749E-01    0.857851E-02    0.000000E+00
    0.116409E-01    0.857851E-02    0.000000E+00
    0.120107E-01    0.857851E-02    0.000000E+00
    0.123841E-01    0.857851E-02    0.000000E+00
    0.881185E-02    0.884661E-02    0.000000E+00
    0.915330E-02    0.884661E-02    0.000000E+00
    0.949815E-02    0.884661E-02    0.000000E+00
    0.984646E-02    0.884661E-02    0.000000E+00
    0.101982E-01    0.884661E-02    0.000000E+00
    0.105536E-01    0.884661E-02    0.000000E+00
    0.109124E-01    0.884661E-02    0.000000E+00
    0.112749E-01    0.884661E-02    0.000000E+00
    0.116409E-01    0.884661E-02    0.000000E+00
    0.120107E-01    0.884661E-02    0.000000E+00
    0.123841E-01    0.884661E-02    0.000000E+00
    0.881185E-02    0.912275E-02    0.000000E+00
    0.915330E-02    0.912275E-02    0.000000E+00
    0.949815E-02    0.912275E-02    0.000000E+00
    0.984646E-02    0.912275E-02    0.000000E+00
    0.101982E-01    0.912275E-02    0.000000E+00
    0.105536E-01    0.912275E-02    0.000000E+00
    0.109124E-01    0.912275E-02    0.000000E+00
    0.112749E-01    0.912275E-02    0.000000E+00
    0.116409E-01    0.912275E-02    0.000000E+00
    0.120107E-01    0.912275E-02    0.000000E+00
    0.123841E-01    0.912275E-02    0.000000E+00
    0.881185E-02    0.669651E-02    0.160000E-02
    0.915330E-02    0.669651E-02    0.160000E-02
    0.949815E-02    0.669651E-02    0.160000E-02
    0.984646E-02    0.669651E-02    0.160000E-02
    0.101982E-01    0.669651E-02    0.160000E-02
    0.105536E-01    0.669651E-02    0.160000E-02
    0.109124E-01    0.669651E-02    0.160000E-02
    0.112749E-01    0.669651E-02    0.160000E-02
    0.116409E-01    0.669651E-02    0.160000E-02
    0.120107E-01    0.669651E-02    0.160000E-02
    0.123841E-01    0.669651E-02    0.160000E-02
    0.881185E-02    0.690815E-02    0.160000E-02
    0.915330E-02    0.690815E-02    0.160000E-02
    0.949815E-02    0.690815E-02    0.160000E-02
    0.984646E-02    0.690815E-02    0.160000E-02
    0.101982E-01    0.690815E-02    0.160000E-02
    0.105536E-01    0.690815E-02    0.160000E-02
    0.109124E-01    0.690815E-02    0.160000E-02
    0.112749E-01    0.690815E-02    0.160000E-02
    0.116409E-01    0.690815E-02    0.160000E-02
    0.120107E-01    0.690815E-02    0.160000E-02
    0.123841E-01    0.690815E-02    0.160000E-02
    0.881185E-02    0.712614E-02    0.160000E-02
    0.915330E-02    0.712614E-02    0.160000E-02
    0.949815E-02    0.712614E-02    0.160000E-02
    0.984646E-02    0.712614E-02    0.160000E-02
    0.101982E-01    0.712614E-02    0.160000E-02
    0.105536E-01    0.712614E-02    0.160000E-02
    0.109124E-01    0.712614E-02    0.160000E-02
    0.112749E-01    0.712614E-02    0.160000E-02
    0.116409E-01    0.712614E-02    0.160000E-02
    0.120107E-01    0.712614E-02    0.160000E-02
    0.123841E-01    0.712614E-02    0.160000E-02
    0.881185E-02    0.735067E-02    0.160000E-02
    0.915330E-02    0.735067E-02    0.160000E-02
    0.949815E-02    0.735067E-02    0.160000E-02
    0.984646E-02    0.735067E-02    0.160000E-02
    0.101982E-01    0.735067E-02    0.160000E-02
    0.105536E-01    0.735067E-02    0.160000E-02
    0.109124E-01    0.735067E-02    0.160000E-02
    0.112749E-01    0.735067E-02    0.160000E-02
    0.116409E-01    0.735067E-02    0.160000E-02
    0.120107E-01    0.735067E-02    0.160000E-02
    0.123841E-01    0.735067E-02    0.160000E-02
    0.881185E-02    0.758194E-02    0.160000E-02
    0.915330E-02    0.758194E-02    0.160000E-02
    0.949815E-02    0.758194E-02    0.160000E-02
    0.984646E-02    0.758194E-02    0.160000E-02
    0.101982E-01    0.758194E-02    0.160000E-02
    0.105536E-01    0.758194E-02    0.160000E-02
    0.109124E-01    0.758194E-02    0.160000E-02
    0.112749E-01    0.758194E-02    0.160000E-02
    0.116409E-01    0.758194E-02    0.160000E-02
    0.120107E-01    0.758194E-02    0.160000E-02
    0.123841E-01    0.758194E-02    0.160000E-02
    0.881185E-02    0.782015E-02    0.160000E-02
    0.915330E-02    0.782015E-02    0.160000E-02
    0.949815E-02    0.782015E-02    0.160000E-02
    0.984646E-02    0.782015E-02    0.160000E-02
    0.101982E-01    0.782015E-02    0.160000E-02
    0.105536E-01    0.782015E-02    0.160000E-02
    0.109124E-01    0.782015E-02    0.160000E-02
    0.112749E-01    0.782015E-02    0.160000E-02
    0.116409E-01    0.782015E-02    0.160000E-02
    0.120107E-01    0.782015E-02    0.160000E-02
    0.123841E-01    0.782015E-02    0.160000E-02
    0.881185E-02    0.806550E-02    0.160000E-02
    0.915330E-02    0.806550E-02    0.160000E-02
    0.949815E-02    0.806550E-02    0.160000E-02
    0.984646E-02    0.806550E-02    0.160000E-02
    0.101982E-01    0.806550E-02    0.160000E-02
    0.105536E-01    0.806550E-02    0.160000E-02
    0.109124E-01    0.806550E-02    0.160000E-02
    0.112749E-01    0.806550E-02    0.160000E-02
    0.116409E-01    0.806550E-02    0.160000E-02
    0.120107E-01    0.806550E-02    0.160000E-02
    0.123841E-01    0.806550E-02    0.160000E-02
    0.881185E-02    0.831821E-02    0.160000E-02
    0.915330E-02    0.831821E-02    0.160000E-02
    0.949815E-02    0.831821E-02    0.160000E-02
    0.984646E-02    0.831821E-02    0.160000E-02
    0.101982E-01    0.831821E-02    0.160000E-02
    0.105536E-01    0.831821E-02    0.160000E-02
    0.109124E-01    0.831821E-02    0.160000E-02
    0.112749E-01    0.831821E-02    0.160000E-02
    0.116409E-01    0.831821E-02    0.160000E-02
    0.120107E-01    0.831821E-02    0.160000E-02
    0.123841E-01    0.831821E-02    0.160000E-02
    0.881185E-02    0.857851E-02    0.160000E-02
    0.915330E-02    0.857851E-02    0.160000E-02
    0.949815E-02    0.857851E-02    0.160000E-02
    0.984646E-02    0.857851E-02    0.160000E-02
    0.101982E-01    0.857851E-02    0.160000E-02
    0.105536E-01    0.857851E-02    0.160000E-02
    0.109124E-01    0.857851E-02    0.160000E-02
    0.112749E-01    0.857851E-02    0.160000E-02
    0.116409E-01    0.857851E-02    0.160000E-02
    0.120107E-01    0.857851E-02    0.160000E-02
    0.123841E-01    0.857851E-02    0.160000E-02
    0.881185E-02    0.884661E-02    0.160000E-02
    0.915330E-02    0.884661E-02    0.160000E-02
    0.949815E-02    0.884661E-02    0.160000E-02
    0.984646E-02    0.884661E-02    0.160000E-02
    0.101982E-01    0.884661E-02    0.160000E-02
    0.105536E-01    0.884661E-02    0.160000E-02
    0.109124E-01    0.884661E-02    0.160000E-02
    0.112749E-01    0.884661E-02    0.160000E-02
    0.116409E-01    0.884661E-02    0.160000E-02
    0.120107E-01    0.884661E-02    0.160000E-02
    0.123841E-01    0.884661E-02    0.160000E-02
    0.881185E-02    0.912275E-02    0.160000E-02
    0.915330E-02    0.912275E-02    0.160000E-02
    0.949815E-02    0.912275E-02    0.160000E-02
    0.984646E-02    0.912275E-02    0.160000E-02
    0.101982E-01    0.912275E-02    0.160000E-02
    0.105536E-01    0.912275E-02    0.160000E-02
    0.109124E-01    0.912275E-02    0.160000E-02
    0.112749E-01    0.912275E-02    0.160000E-02
    0.116409E-01    0.912275E-02    0.160000E-02
    0.120107E-01    0.912275E-02    0.160000E-02
    0.123841E-01    0.912275E-02    0.160000E-02
</DataArray>
</Points>
<PointData>
<DataArray Name="Velocity" type="Float64" format="ascii" NumberOfComponents="3">
    0.754607E-01   -0.198872E-01    0.000000E+00
    0.758376E-01   -0.197397E-01    0.000000E+00
    0.762267E-01   -0.195053E-01    0.000000E+00
    0.766263E-01   -0.191691E-01    0.000000E+00
    0.770347E-01   -0.186926E-01    0.000000E+00
    0.774503E-01   -0.180307E-01    0.000000E+00
    0.778710E-01   -0.171325E-01    0.000000E+00
    0.782940E-01   -0.159427E-01    0.000000E+00
    0.787150E-01   -0.144045E-01    0.000000E+00
    0.791285E-01   -0.124640E-01    0.000000E+00
    0.795270E-01   -0.100767E-01    0.000000E+00
    0.751051E-01   -0.194345E-01    0.000000E+00
    0.753589E-01   -0.192920E-01    0.000000E+00
    0.756177E-01   -0.190635E-01    0.000000E+00
    0.758795E-01   -0.187348E-01    0.000000E+00
    0.761433E-01   -0.182686E-01    0.000000E+00
    0.764087E-01   -0.176214E-01    0.000000E+00
    0.766757E-01   -0.167439E-01    0.000000E+00
    0.769449E-01   -0.155824E-01    0.000000E+00
    0.772170E-01   -0.140818E-01    0.000000E+00
    0.774925E-01   -0.121904E-01    0.000000E+00
    0.777714E-01   -0.986610E-02    0.000000E+00
    0.748038E-01   -0.189157E-01    0.000000E+00
    0.749159E-01   -0.187719E-01    0.000000E+00
    0.750204E-01   -0.185418E-01    0.000000E+00
    0.751146E-01   -0.182125E-01    0.000000E+00
    0.751969E-01   -0.177487E-01    0.000000E+00
    0.752671E-01   -0.171092E-01    0.000000E+00
    0.753271E-01   -0.162470E-01    0.000000E+00
    0.753807E-01   -0.151113E-01    0.000000E+00
    0.754340E-01   -0.136502E-01    0.000000E+00
    0.754956E-01   -0.118151E-01    0.000000E+00
    0.755759E-01   -0.956729E-02    0.000000E+00
    0.746638E-01   -0.183377E-01    0.000000E+00
    0.746525E-01   -0.181883E-01    0.000000E+00
    0.746250E-01   -0.179510E-01    0.000000E+00
    0.745777E-01   -0.176156E-01    0.000000E+00
    0.745088E-01   -0.171490E-01    0.000000E+00
    0.744188E-01   -0.165124E-01    0.000000E+00
    0.743108E-01   -0.156623E-01    0.000000E+00
    0.741912E-01   -0.145514E-01    0.000000E+00
    0.740703E-01   -0.131318E-01    0.000000E+00
    0.739624E-01   -0.113592E-01    0.000000E+00
    0.738863E-01   -0.919917E-02    0.000000E+00
    0.746791E-01   -0.177087E-01    0.000000E+00
    0.745639E-01   -0.175510E-01    0.000000E+00
    0.744265E-01   -0.173031E-01    0.000000E+00
    0.742634E-01   -0.169581E-01    0.000000E+00
    0.740726E-01   -0.164851E-01    0.000000E+00
    0.738549E-01   -0.158488E-01    0.000000E+00
    0.736147E-01   -0.150090E-01    0.000000E+00
    0.733602E-01   -0.139228E-01    0.000000E+00
    0.731047E-01   -0.125471E-01    0.000000E+00
    0.728672E-01   -0.108424E-01    0.000000E+00
    0.726721E-01   -0.877918E-02    0.000000E+00
    0.748389E-01   -0.170386E-01    0.000000E+00
    0.746393E-01   -0.168707E-01    0.000000E+00
    0.744143E-01   -0.166104E-01    0.000000E+00
    0.741601E-01   -0.162537E-01    0.000000E+00
    0.738751E-01   -0.157729E-01    0.000000E+00
    0.735604E-01   -0.151355E-01    0.000000E+00
    0.732211E-01   -0.143055E-01    0.000000E+00
    0.728669E-01   -0.132448E-01    0.000000E+00
    0.725131E-01   -0.119152E-01    0.000000E+00
    0.721816E-01   -0.102828E-01    0.000000E+00
    0.719009E-01   -0.832330E-02    0.000000E+00
    0.751290E-01   -0.163374E-01    0.000000E+00
    0.748643E-01   -0.161589E-01    0.000000E+00
    0.745730E-01   -0.158855E-01    0.000000E+00
    0.742516E-01   -0.155169E-01    0.000000E+00
    0.738987E-01   -0.150279E-01    0.000000E+00
    0.735157E-01   -0.143895E-01    0.000000E+00
    0.731083E-01   -0.135700E-01    0.000000E+00
    0.726870E-01   -0.125358E-01    0.000000E+00
    0.722681E-01   -0.112544E-01    0.000000E+00
    0.718750E-01   -0.969753E-02    0.000000E+00
    0.715386E-01   -0.784629E-02    0.000000E+00
    0.755330E-01   -0.156160E-01    0.000000E+00
    0.752215E-01   -0.154273E-01    0.000000E+00
    0.748843E-01   -0.151415E-01    0.000000E+00
    0.745181E-01   -0.147619E-01    0.000000E+00
    0.741219E-01   -0.142658E-01    0.000000E+00
    0.736976E-01   -0.136277E-01    0.000000E+00
    0.732511E-01   -0.128200E-01    0.000000E+00
    0.727929E-01   -0.118139E-01    0.000000E+00
    0.723398E-01   -0.105824E-01    0.000000E+00
    0.719151E-01   -0.910292E-02    0.000000E+00
    0.715501E-01   -0.736187E-02    0.000000E+00
    0.760330E-01   -0.148847E-01    0.000000E+00
    0.756915E-01   -0.146872E-01    0.000000E+00
    0.753268E-01   -0.143911E-01    0.000000E+00
    0.749363E-01   -0.140027E-01    0.000000E+00
    0.745197E-01   -0.135020E-01    0.000000E+00
    0.740791E-01   -0.128668E-01    0.000000E+00
    0.736205E-01   -0.120731E-01    0.000000E+00
    0.731541E-01   -0.110971E-01    0.000000E+00
    0.726959E-01   -0.991683E-02    0.000000E+00
    0.722682E-01   -0.851509E-02    0.000000E+00
    0.719005E-01   -0.688351E-02    0.000000E+00
    0.766092E-01   -0.141535E-01    0.000000E+00
    0.762522E-01   -0.139495E-01    0.000000E+00
    0.758763E-01   -0.136463E-01    0.000000E+00
    0.754799E-01   -0.132528E-01    0.000000E+00
    0.750633E-01   -0.127515E-01    0.000000E+00
    0.746293E-01   -0.121230E-01    0.000000E+00
    0.741837E-01   -0.113469E-01    0.000000E+00
    0.737361E-01   -0.104036E-01    0.000000E+00
    0.733011E-01   -0.927571E-02    0.000000E+00
    0.728987E-01   -0.795098E-02    0.000000E+00
    0.725551E-01   -0.642558E-02    0.000000E+00
    0.772397E-01   -0.134308E-01    0.000000E+00
    0.768789E-01   -0.132237E-01    0.000000E+00
    0.765052E-01   -0.129180E-01    0.000000E+00
    0.761182E-01   -0.125247E-01    0.000000E+00
    0.757193E-01   -0.120284E-01    0.000000E+00
    0.753121E-01   -0.114122E-01    0.000000E+00
    0.749024E-01   -0.106589E-01    0.000000E+00
    0.744993E-01   -0.975215E-02    0.000000E+00
    0.741156E-01   -0.867849E-02    0.000000E+00
    0.737682E-01   -0.742963E-02    0.000000E+00
    0.734785E-01   -0.600541E-02    0.000000E+00
    0.755166E-01   -0.199045E-01    0.487519E-17
    0.759099E-01   -0.197397E-01    0.483484E-17
    0.763153E-01   -0.195053E-01    0.477742E-17
    0.767311E-01   -0.191691E-01    0.469508E-17
    0.771553E-01   -0.186926E-01    0.457836E-17
    0.775861E-01   -0.180307E-01    0.441625E-17
    0.780208E-01   -0.171325E-01    0.419625E-17
    0.784559E-01   -0.159427E-01    0.390484E-17
    0.788869E-01   -0.144045E-01    0.352808E-17
    0.793074E-01   -0.124640E-01    0.305279E-17
    0.797096E-01   -0.100767E-01    0.246809E-17
    0.751051E-01   -0.194510E-01    0.476413E-17
    0.753589E-01   -0.192920E-01    0.472517E-17
    0.756177E-01   -0.190635E-01    0.466921E-17
    0.758795E-01   -0.187348E-01    0.458869E-17
    0.761433E-01   -0.182686E-01    0.447451E-17
    0.764087E-01   -0.176214E-01    0.431600E-17
    0.766757E-01   -0.167439E-01    0.410107E-17
    0.769449E-01   -0.155824E-01    0.381658E-17
    0.772170E-01   -0.140818E-01    0.344905E-17
    0.774925E-01   -0.121904E-01    0.298580E-17
    0.777714E-01   -0.986610E-02    0.241650E-17
    0.748038E-01   -0.189323E-01    0.463709E-17
    0.749159E-01   -0.187719E-01    0.459780E-17
    0.750204E-01   -0.185418E-01    0.454142E-17
    0.751146E-01   -0.182125E-01    0.446076E-17
    0.751969E-01   -0.177487E-01    0.434718E-17
    0.752671E-01   -0.171092E-01    0.419054E-17
    0.753271E-01   -0.162470E-01    0.397936E-17
    0.753807E-01   -0.151113E-01    0.370120E-17
    0.754340E-01   -0.136502E-01    0.334334E-17
    0.754956E-01   -0.118151E-01    0.289387E-17
    0.755759E-01   -0.956729E-02    0.234331E-17
    0.746638E-01   -0.183550E-01    0.449567E-17
    0.746525E-01   -0.181883E-01    0.445485E-17
    0.746250E-01   -0.179510E-01    0.439674E-17
    0.745777E-01   -0.176156E-01    0.431459E-17
    0.745088E-01   -0.171490E-01    0.420029E-17
    0.744188E-01   -0.165124E-01    0.404437E-17
    0.743108E-01   -0.156623E-01    0.383615E-17
    0.741912E-01   -0.145514E-01    0.356406E-17
    0.740703E-01   -0.131318E-01    0.321636E-17
    0.739624E-01   -0.113592E-01    0.278221E-17
    0.738863E-01   -0.919917E-02    0.225315E-17
    0.746791E-01   -0.177271E-01    0.434189E-17
    0.745639E-01   -0.175510E-01    0.429875E-17
    0.744265E-01   -0.173031E-01    0.423804E-17
    0.742634E-01   -0.169581E-01    0.415353E-17
    0.740726E-01   -0.164851E-01    0.403769E-17
    0.738549E-01   -0.158488E-01    0.388183E-17
    0.736147E-01   -0.150090E-01    0.367613E-17
    0.733602E-01   -0.139228E-01    0.341010E-17
    0.731047E-01   -0.125471E-01    0.307314E-17
    0.728672E-01   -0.108424E-01    0.265563E-17
    0.726721E-01   -0.877918E-02    0.215028E-17
    0.748389E-01   -0.170582E-01    0.417806E-17
    0.746393E-01   -0.168707E-01    0.413213E-17
    0.744143E-01   -0.166104E-01    0.406836E-17
    0.741601E-01   -0.162537E-01    0.398102E-17
    0.738751E-01   -0.157729E-01    0.386324E-17
    0.735604E-01   -0.151355E-01    0.370712E-17
    0.732211E-01   -0.143055E-01    0.350384E-17
    0.728669E-01   -0.132448E-01    0.324403E-17
    0.725131E-01   -0.119152E-01    0.291837E-17
    0.721816E-01   -0.102828E-01    0.251856E-17
    0.719009E-01   -0.832330E-02    0.203862E-17
    0.751290E-01   -0.163585E-01    0.400667E-17
    0.748643E-01   -0.161589E-01    0.395779E-17
    0.745730E-01   -0.158855E-01    0.389083E-17
    0.742516E-01   -0.155169E-01    0.380055E-17
    0.738987E-01   -0.150279E-01    0.368077E-17
    0.735157E-01   -0.143895E-01    0.352442E-17
    0.731083E-01   -0.135700E-01    0.332368E-17
    0.726870E-01   -0.125358E-01    0.307038E-17
    0.722681E-01   -0.112544E-01    0.275653E-17
    0.718750E-01   -0.969753E-02    0.237521E-17
    0.715386E-01   -0.784629E-02    0.192179E-17
    0.755330E-01   -0.156384E-01    0.383030E-17
    0.752215E-01   -0.154273E-01    0.377859E-17
    0.748843E-01   -0.151415E-01    0.370861E-17
    0.745181E-01   -0.147619E-01    0.361562E-17
    0.741219E-01   -0.142658E-01    0.349412E-17
    0.736976E-01   -0.136277E-01    0.333784E-17
    0.732511E-01   -0.128200E-01    0.313999E-17
    0.727929E-01   -0.118139E-01    0.289357E-17
    0.723398E-01   -0.105824E-01    0.259194E-17
    0.719151E-01   -0.910292E-02    0.222957E-17
    0.715501E-01   -0.736187E-02    0.180314E-17
    0.760330E-01   -0.149083E-01    0.365148E-17
    0.756915E-01   -0.146872E-01    0.359733E-17
    0.753268E-01   -0.143911E-01    0.352480E-17
    0.749363E-01   -0.140027E-01    0.342967E-17
    0.745197E-01   -0.135020E-01    0.330704E-17
    0.740791E-01   -0.128668E-01    0.315145E-17
    0.736205E-01   -0.120731E-01    0.295706E-17
    0.731541E-01   -0.110971E-01    0.271801E-17
    0.726959E-01   -0.991683E-02    0.242892E-17
    0.722682E-01   -0.851509E-02    0.208560E-17
    0.719005E-01   -0.688351E-02    0.168597E-17
    0.766092E-01   -0.141780E-01    0.347260E-17
    0.762522E-01   -0.139495E-01    0.341665E-17
    0.758763E-01   -0.136463E-01    0.334238E-17
    0.754799E-01   -0.132528E-01    0.324601E-17
    0.750633E-01   -0.127515E-01    0.312322E-17
    0.746293E-01   -0.121230E-01    0.296927E-17
    0.741837E-01   -0.113469E-01    0.277919E-17
    0.737361E-01   -0.104036E-01    0.254815E-17
    0.733011E-01   -0.927571E-02    0.227189E-17
    0.728987E-01   -0.795098E-02    0.194743E-17
    0.725551E-01   -0.642558E-02    0.157381E-17
    0.772397E-01   -0.134557E-01    0.329571E-17
    0.768789E-01   -0.132237E-01    0.323888E-17
    0.765052E-01   -0.129180E-01    0.316399E-17
    0.761182E-01   -0.125247E-01    0.306768E-17
    0.757193E-01   -0.120284E-01    0.294612E-17
    0.753121E-01   -0.114122E-01    0.279519E-17
    0.749024E-01   -0.106589E-01    0.261068E-17
    0.744993E-01   -0.975215E-02    0.238859E-17
    0.741156E-01   -0.867849E-02    0.212562E-17
    0.737682E-01   -0.742963E-02    0.181973E-17
    0.734785E-01   -0.600541E-02    0.147090E-17
</DataArray>
</PointData>
<CellData>
<DataArray Name="DP" type="Float64" format="ascii" NumberOfComponents="1">
      0.000000E+0000
      0.000000E+0000
      0.000000E+0000
      0.000000E+0000
      0.000000E+0000
      0.000000E+0000
      0.000000E+0000
      0.000000E+0000
      0.000000E+0000
      0.000000E+0000
      0.000000E+0000
      0.000000E+0000
      0.000000E+0000
      0.000000E+0000
      0.000000E+0000
      0.000000E+0000
      0.000000E+0000
      0.000000E+0000
      0.000000E+0000
      0.000000E+0000
      0.000000E+0000
      0.000000E+0000
      0.000000E+0000
      0.000000E+0000
      0.000000E+0000
      0.000000E+0000
      0.000000E+0000
      0.000000E+0000
      0.000000E+0000
      0.000000E+0000
      0.000000E+0000
      0.000000E+0000
      0.000000E+0000
      0.000000E+0000
      0.000000E+0000
      0.000000E+0000
      0.000000E+0000
      0.000000E+0000
      0.000000E+0000
      0.000000E+0000
      0.000000E+0000
      0.000000E+0000
      0.000000E+0000
      0.000000E+0000
      0.000000E+0000
      0.000000E+0000
      0.000000E+0000
      0.000000E+0000
      0.000000E+0000
      0.000000E+0000
      0.000000E+0000
      0.000000E+0000
      0.000000E+0000
      0.000000E+0000
      0.000000E+0000
      0.000000E+0000
      0.000000E+0000
      0.000000E+0000
      0.000000E+0000
      0.000000E+0000
      0.000000E+0000
      0.000000E+0000
      0.000000E+0000
      0.000000E+0000
      0.000000E+0000
      0.000000E+0000
      0.000000E+0000
      0.000000E+0000
      0.000000E+0000
      0.000000E+0000
      0.000000E+0000
      0.000000E+0000
      0.000000E+0000
      0.000000E+0000
      0.000000E+0000
      0.000000E+0000
      0.000000E+0000
      0.000000E+0000
      0.000000E+0000
      0.000000E+0000
      0.000000E+0000
      0.000000E+0000
      0.000000E+0000
      0.000000E+0000
      0.000000E+0000
      0.000000E+0000
      0.000000E+0000
      0.000000E+0000
      0.000000E+0000
      0.000000E+0000
      0.000000E+0000
      0.000000E+0000
      0.000000E+0000
      0.000000E+0000
      0.000000E+0000
      0.000000E+0000
      0.000000E+0000
      0.000000E+0000
      0.000000E+0000
      0.000000E+0000
</DataArray>
<DataArray Name="P" type="Float64" format="ascii" NumberOfComponents="1">
      0.528868E+0000
      0.524894E+0000
      0.520878E+0000
      0.516820E+0000
      0.512722E+0000
      0.508586E+0000
      0.504412E+0000
      0.500204E+0000
      0.495965E+0000
      0.491701E+0000
      0.528888E+0000
      0.524921E+0000
      0.520911E+0000
      0.516860E+0000
      0.512769E+0000
      0.508639E+0000
      0.504472E+0000
      0.500271E+0000
      0.496039E+0000
      0.491781E+0000
      0.528911E+0000
      0.524949E+0000
      0.520945E+0000
      0.516901E+0000
      0.512816E+0000
      0.508694E+0000
      0.504534E+0000
      0.500340E+0000
      0.496115E+0000
      0.491863E+0000
      0.528935E+0000
      0.524979E+0000
      0.520981E+0000
      0.516942E+0000
      0.512865E+0000
      0.508749E+0000
      0.504596E+0000
      0.500409E+0000
      0.496191E+0000
      0.491944E+0000
      0.528960E+0000
      0.525009E+0000
      0.521017E+0000
      0.516985E+0000
      0.512913E+0000
      0.508804E+0000
      0.504658E+0000
      0.500477E+0000
      0.496265E+0000
      0.492023E+0000
      0.528987E+0000
      0.525040E+0000
      0.521053E+0000
      0.517026E+0000
      0.512961E+0000
      0.508857E+0000
      0.504718E+0000
      0.500543E+0000
      0.496336E+0000
      0.492099E+0000
      0.529014E+0000
      0.525072E+0000
      0.521090E+0000
      0.517068E+0000
      0.513007E+0000
      0.508909E+0000
      0.504775E+0000
      0.500606E+0000
      0.496404E+0000
      0.492171E+0000
      0.529042E+0000
      0.525103E+0000
      0.521125E+0000
      0.517108E+0000
      0.513052E+0000
      0.508959E+0000
      0.504829E+0000
      0.500665E+0000
      0.496467E+0000
      0.492237E+0000
      0.529069E+0000
      0.525134E+0000
      0.521160E+0000
      0.517146E+0000
      0.513094E+0000
      0.509005E+0000
      0.504880E+0000
      0.500719E+0000
      0.496525E+0000
      0.492297E+0000
      0.529097E+0000
      0.525165E+0000
      0.521193E+0000
      0.517183E+0000
      0.513134E+0000
      0.509048E+0000
      0.504926E+0000
      0.500769E+0000
      0.496576E+0000
      0.492350E+0000
</DataArray>
<DataArray Name="RHO" type="Float64" format="ascii" NumberOfComponents="1">
      0.116322E+0001
      0.116257E+0001
      0.116175E+0001
      0.116075E+0001
      0.115953E+0001
      0.115808E+0001
      0.115636E+0001
      0.115436E+0001
      0.115206E+0001
      0.114949E+0001
      0.116468E+0001
      0.116410E+0001
      0.116338E+0001
      0.116250E+0001
      0.116144E+0001
      0.116017E+0001
      0.115868E+0001
      0.115694E+0001
      0.115497E+0001
      0.115276E+0001
      0.116594E+0001
      0.116543E+0001
      0.116480E+0001
      0.116404E+0001
      0.116312E+0001
      0.116203E+0001
      0.116074E+0001
      0.115926E+0001
      0.115757E+0001
      0.115570E+0001
      0.116702E+0001
      0.116658E+0001
      0.116604E+0001
      0.116538E+0001
      0.116459E+0001
      0.116366E+0001
      0.116257E+0001
      0.116131E+0001
      0.115989E+0001
      0.115833E+0001
      0.116795E+0001
      0.116757E+0001
      0.116710E+0001
      0.116654E+0001
      0.116588E+0001
      0.116509E+0001
      0.116417E+0001
      0.116312E+0001
      0.116194E+0001
      0.116065E+0001
      0.116873E+0001
      0.116841E+0001
      0.116802E+0001
      0.116755E+0001
      0.116699E+0001
      0.116633E+0001
      0.116556E+0001
      0.116470E+0001
      0.116373E+0001
      0.116268E+0001
      0.116940E+0001
      0.116913E+0001