<?xml version="1.0"?>
<VTKFile type="StructuredGrid" version="0.1" byte_order="LittleEndian">
<StructuredGrid WholeExtent="          50          60          50          60           0           1">
<Piece Extent="          50          60          50          60           0           1">
<Points>
<DataArray NumberOfComponents="3" type="Float64" format="ascii">
    0.163301E-01    0.123834E-01    0.000000E+00
    0.167467E-01    0.123834E-01    0.000000E+00
    0.171675E-01    0.123834E-01    0.000000E+00
    0.175925E-01    0.123834E-01    0.000000E+00
    0.180217E-01    0.123834E-01    0.000000E+00
    0.184553E-01    0.123834E-01    0.000000E+00
    0.188932E-01    0.123834E-01    0.000000E+00
    0.193354E-01    0.123834E-01    0.000000E+00
    0.197821E-01    0.123834E-01    0.000000E+00
    0.202332E-01    0.123834E-01    0.000000E+00
    0.206889E-01    0.123834E-01    0.000000E+00
    0.163301E-01    0.127657E-01    0.000000E+00
    0.167467E-01    0.127657E-01    0.000000E+00
    0.171675E-01    0.127657E-01    0.000000E+00
    0.175925E-01    0.127657E-01    0.000000E+00
    0.180217E-01    0.127657E-01    0.000000E+00
    0.184553E-01    0.127657E-01    0.000000E+00
    0.188932E-01    0.127657E-01    0.000000E+00
    0.193354E-01    0.127657E-01    0.000000E+00
    0.197821E-01    0.127657E-01    0.000000E+00
    0.202332E-01    0.127657E-01    0.000000E+00
    0.206889E-01    0.127657E-01    0.000000E+00
    0.163301E-01    0.131594E-01    0.000000E+00
    0.167467E-01    0.131594E-01    0.000000E+00
    0.171675E-01    0.131594E-01    0.000000E+00
    0.175925E-01    0.131594E-01    0.000000E+00
    0.180217E-01    0.131594E-01    0.000000E+00
    0.184553E-01    0.131594E-01    0.000000E+00
    0.188932E-01    0.131594E-01    0.000000E+00
    0.193354E-01    0.131594E-01    0.000000E+00
    0.197821E-01    0.131594E-01    0.000000E+00
    0.202332E-01    0.131594E-01    0.000000E+00
    0.206889E-01    0.131594E-01    0.000000E+00
    0.163301E-01    0.135649E-01    0.000000E+00
    0.167467E-01    0.135649E-01    0.000000E+00
    0.171675E-01    0.135649E-01    0.000000E+00
    0.175925E-01    0.135649E-01    0.000000E+00
    0.180217E-01    0.135649E-01    0.000000E+00
    0.184553E-01    0.135649E-01    0.000000E+00
    0.188932E-01    0.135649E-01    0.000000E+00
    0.193354E-01    0.135649E-01    0.000000E+00
    0.197821E-01    0.135649E-01    0.000000E+00
    0.202332E-01    0.135649E-01    0.000000E+00
    0.206889E-01    0.135649E-01    0.000000E+00
    0.163301E-01    0.139826E-01    0.000000E+00
    0.167467E-01    0.139826E-01    0.000000E+00
    0.171675E-01    0.139826E-01    0.000000E+00
    0.175925E-01    0.139826E-01    0.000000E+00
    0.180217E-01    0.139826E-01    0.000000E+00
    0.184553E-01    0.139826E-01    0.000000E+00
    0.188932E-01    0.139826E-01    0.000000E+00
    0.193354E-01    0.139826E-01    0.000000E+00
    0.197821E-01    0.139826E-01    0.000000E+00
    0.202332E-01    0.139826E-01    0.000000E+00
    0.206889E-01    0.139826E-01    0.000000E+00
    0.163301E-01    0.144128E-01    0.000000E+00
    0.167467E-01    0.144128E-01    0.000000E+00
    0.171675E-01    0.144128E-01    0.000000E+00
    0.175925E-01    0.144128E-01    0.000000E+00
    0.180217E-01    0.144128E-01    0.000000E+00
    0.184553E-01    0.144128E-01    0.000000E+00
    0.188932E-01    0.144128E-01    0.000000E+00
    0.193354E-01    0.144128E-01    0.000000E+00
    0.197821E-01    0.144128E-01    0.000000E+00
    0.202332E-01    0.144128E-01    0.000000E+00
    0.206889E-01    0.144128E-01    0.000000E+00
    0.163301E-01    0.148560E-01    0.000000E+00
    0.167467E-01    0.148560E-01    0.000000E+00
    0.171675E-01    0.148560E-01    0.000000E+00
    0.175925E-01    0.148560E-01    0.000000E+00
    0.180217E-01    0.148560E-01    0.000000E+00
    0.184553E-01    0.148560E-01    0.000000E+00
    0.188932E-01    0.148560E-01    0.000000E+00
    0.193354E-01    0.148560E-01    0.000000E+00
    0.197821E-01    0.148560E-01    0.000000E+00
    0.202332E-01    0.148560E-01    0.000000E+00
    0.206889E-01    0.148560E-01    0.000000E+00
    0.163301E-01    0.153124E-01    0.000000E+00
    0.167467E-01    0.153124E-01    0.000000E+00
    0.171675E-01    0.153124E-01    0.000000E+00
    0.175925E-01    0.153124E-01    0.000000E+00
    0.180217E-01    0.153124E-01    0.000000E+00
    0.184553E-01    0.153124E-01    0.000000E+00
    0.188932E-01    0.153124E-01    0.000000E+00
    0.193354E-01    0.153124E-01    0.000000E+00
    0.197821E-01    0.153124E-01    0.000000E+00
    0.202332E-01    0.153124E-01    0.000000E+00
    0.206889E-01    0.153124E-01    0.000000E+00
    0.163301E-01    0.157825E-01    0.000000E+00
    0.167467E-01    0.157825E-01    0.000000E+00
    0.171675E-01    0.157825E-01    0.000000E+00
    0.175925E-01    0.157825E-01    0.000000E+00
    0.180217E-01    0.157825E-01    0.000000E+00
    0.184553E-01    0.157825E-01    0.000000E+00
    0.188932E-01    0.157825E-01    0.000000E+00
    0.193354E-01    0.157825E-01    0.000000E+00
    0.197821E-01    0.157825E-01    0.000000E+00
    0.202332E-01    0.157825E-01    0.000000E+00
    0.206889E-01    0.157825E-01    0.000000E+00
    0.163301E-01    0.162667E-01    0.000000E+00
    0.167467E-01    0.162667E-01    0.000000E+00
    0.171675E-01    0.162667E-01    0.000000E+00
    0.175925E-01    0.162667E-01    0.000000E+00
    0.180217E-01    0.162667E-01    0.000000E+00
    0.184553E-01    0.162667E-01    0.000000E+00
    0.188932E-01    0.162667E-01    0.000000E+00
    0.193354E-01    0.162667E-01    0.000000E+00
    0.197821E-01    0.162667E-01    0.000000E+00
    0.202332E-01    0.162667E-01    0.000000E+00
    0.206889E-01    0.162667E-01    0.000000E+00
    0.163301E-01    0.167655E-01    0.000000E+00
    0.167467E-01    0.167655E-01    0.000000E+00
    0.171675E-01    0.167655E-01    0.000000E+00
    0.175925E-01    0.167655E-01    0.000000E+00
    0.180217E-01    0.167655E-01    0.000000E+00
    0.184553E-01    0.167655E-01    0.000000E+00
    0.188932E-01    0.167655E-01    0.000000E+00
    0.193354E-01    0.167655E-01    0.000000E+00
    0.197821E-01    0.167655E-01    0.000000E+00
    0.202332E-01    0.167655E-01    0.000000E+00
    0.206889E-01    0.167655E-01    0.000000E+00
    0.163301E-01    0.123834E-01    0.160000E-02
    0.167467E-01    0.123834E-01    0.160000E-02
    0.171675E-01    0.123834E-01    0.160000E-02
    0.175925E-01    0.123834E-01    0.160000E-02
    0.180217E-01    0.123834E-01    0.160000E-02
    0.184553E-01    0.123834E-01    0.160000E-02
    0.188932E-01    0.123834E-01    0.160000E-02
    0.193354E-01    0.123834E-01    0.160000E-02
    0.197821E-01    0.123834E-01    0.160000E-02
    0.202332E-01    0.123834E-01    0.160000E-02
    0.206889E-01    0.123834E-01    0.160000E-02
    0.163301E-01    0.127657E-01    0.160000E-02
    0.167467E-01    0.127657E-01    0.160000E-02
    0.171675E-01    0.127657E-01    0.160000E-02
    0.175925E-01    0.127657E-01    0.160000E-02
    0.180217E-01    0.127657E-01    0.160000E-02
    0.184553E-01    0.127657E-01    0.160000E-02
    0.188932E-01    0.127657E-01    0.160000E-02
    0.193354E-01    0.127657E-01    0.160000E-02
    0.197821E-01    0.127657E-01    0.160000E-02
    0.202332E-01    0.127657E-01    0.160000E-02
    0.206889E-01    0.127657E-01    0.160000E-02
    0.163301E-01    0.131594E-01    0.160000E-02
    0.167467E-01    0.131594E-01    0.160000E-02
    0.171675E-01    0.131594E-01    0.160000E-02
    0.175925E-01    0.131594E-01    0.160000E-02
    0.180217E-01    0.131594E-01    0.160000E-02
    0.184553E-01    0.131594E-01    0.160000E-02
    0.188932E-01    0.131594E-01    0.160000E-02
    0.193354E-01    0.131594E-01    0.160000E-02
    0.197821E-01    0.131594E-01    0.160000E-02
    0.202332E-01    0.131594E-01    0.160000E-02
    0.206889E-01    0.131594E-01    0.160000E-02
    0.163301E-01    0.135649E-01    0.160000E-02
    0.167467E-01    0.135649E-01    0.160000E-02
    0.171675E-01    0.135649E-01    0.160000E-02
    0.175925E-01    0.135649E-01    0.160000E-02
    0.180217E-01    0.135649E-01    0.160000E-02
    0.184553E-01    0.135649E-01    0.160000E-02
    0.188932E-01    0.135649E-01    0.160000E-02
    0.193354E-01    0.135649E-01    0.160000E-02
    0.197821E-01    0.135649E-01    0.160000E-02
    0.202332E-01    0.135649E-01    0.160000E-02
    0.206889E-01    0.135649E-01    0.160000E-02
    0.163301E-01    0.139826E-01    0.160000E-02
    0.167467E-01    0.139826E-01    0.160000E-02
    0.171675E-01    0.139826E-01    0.160000E-02
    0.175925E-01    0.139826E-01    0.160000E-02
    0.180217E-01    0.139826E-01    0.160000E-02
    0.184553E-01    0.139826E-01    0.160000E-02
    0.188932E-01    0.139826E-01    0.160000E-02
    0.193354E-01    0.139826E-01    0.160000E-02
    0.197821E-01    0.139826E-01    0.160000E-02
    0.202332E-01    0.139826E-01    0.160000E-02
    0.206889E-01    0.139826E-01    0.160000E-02
    0.163301E-01    0.144128E-01    0.160000E-02
    0.167467E-01    0.144128E-01    0.160000E-02
    0.171675E-01    0.144128E-01    0.160000E-02
    0.175925E-01    0.144128E-01    0.160000E-02
    0.180217E-01    0.144128E-01    0.160000E-02
    0.184553E-01    0.144128E-01    0.160000E-02
    0.188932E-01    0.144128E-01    0.160000E-02
    0.193354E-01    0.144128E-01    0.160000E-02
    0.197821E-01    0.144128E-01    0.160000E-02
    0.202332E-01    0.144128E-01    0.160000E-02
    0.206889E-01    0.144128E-01    0.160000E-02
    0.163301E-01    0.148560E-01    0.160000E-02
    0.167467E-01    0.148560E-01    0.160000E-02
    0.171675E-01    0.148560E-01    0.160000E-02
    0.175925E-01    0.148560E-01    0.160000E-02
    0.180217E-01    0.148560E-01    0.160000E-02
    0.184553E-01    0.148560E-01    0.160000E-02
    0.188932E-01    0.148560E-01    0.160000E-02
    0.193354E-01    0.148560E-01    0.160000E-02
    0.197821E-01    0.148560E-01    0.160000E-02
    0.202332E-01    0.148560E-01    0.160000E-02
    0.206889E-01    0.148560E-01    0.160000E-02
    0.163301E-01    0.153124E-01    0.160000E-02
    0.167467E-01    0.153124E-01    0.160000E-02
    0.171675E-01    0.153124E-01    0.160000E-02
    0.175925E-01    0.153124E-01    0.160000E-02
    0.180217E-01    0.153124E-01    0.160000E-02
    0.184553E-01    0.153124E-01    0.160000E-02
    0.188932E-01    0.153124E-01    0.160000E-02
    0.193354E-01    0.153124E-01    0.160000E-02
    0.197821E-01    0.153124E-01    0.160000E-02
    0.202332E-01    0.153124E-01    0.160000E-02
    0.206889E-01    0.153124E-01    0.160000E-02
    0.163301E-01    0.157825E-01    0.160000E-02
    0.167467E-01    0.157825E-01    0.160000E-02
    0.171675E-01    0.157825E-01    0.160000E-02
    0.175925E-01    0.157825E-01    0.160000E-02
    0.180217E-01    0.157825E-01    0.160000E-02
    0.184553E-01    0.157825E-01    0.160000E-02
    0.188932E-01    0.157825E-01    0.160000E-02
    0.193354E-01    0.157825E-01    0.160000E-02
    0.197821E-01    0.157825E-01    0.160000E-02
    0.202332E-01    0.157825E-01    0.160000E-02
    0.206889E-01    0.157825E-01    0.160000E-02
    0.163301E-01    0.162667E-01    0.160000E-02
    0.167467E-01    0.162667E-01    0.160000E-02
    0.171675E-01    0.162667E-01    0.160000E-02
    0.175925E-01    0.162667E-01    0.160000E-02
    0.180217E-01    0.162667E-01    0.160000E-02
    0.184553E-01    0.162667E-01    0.160000E-02
    0.188932E-01    0.162667E-01    0.160000E-02
    0.193354E-01    0.162667E-01    0.160000E-02
    0.197821E-01    0.162667E-01    0.160000E-02
    0.202332E-01    0.162667E-01    0.160000E-02
    0.206889E-01    0.162667E-01    0.160000E-02
    0.163301E-01    0.167655E-01    0.160000E-02
    0.167467E-01    0.167655E-01    0.160000E-02
    0.171675E-01    0.167655E-01    0.160000E-02
    0.175925E-01    0.167655E-01    0.160000E-02
    0.180217E-01    0.167655E-01    0.160000E-02
    0.184553E-01    0.167655E-01    0.160000E-02
    0.188932E-01    0.167655E-01    0.160000E-02
    0.193354E-01    0.167655E-01    0.160000E-02
    0.197821E-01    0.167655E-01    0.160000E-02
    0.202332E-01    0.167655E-01    0.160000E-02
    0.206889E-01    0.167655E-01    0.160000E-02
</DataArray>
</Points>
<PointData>
<DataArray Name="Velocity" type="Float64" format="ascii" NumberOfComponents="3">
    0.859310E-01   -0.259414E-02    0.000000E+00
    0.860306E-01   -0.255755E-02    0.000000E+00
    0.861246E-01   -0.249191E-02    0.000000E+00
    0.862133E-01   -0.240643E-02    0.000000E+00
    0.862972E-01   -0.230700E-02    0.000000E+00
    0.863768E-01   -0.219890E-02    0.000000E+00
    0.864527E-01   -0.208655E-02    0.000000E+00
    0.865253E-01   -0.197343E-02    0.000000E+00
    0.865951E-01   -0.186211E-02    0.000000E+00
    0.866625E-01   -0.175435E-02    0.000000E+00
    0.867277E-01   -0.165123E-02    0.000000E+00
    0.860549E-01   -0.260870E-02    0.000000E+00
    0.861431E-01   -0.256770E-02    0.000000E+00
    0.862269E-01   -0.249789E-02    0.000000E+00
    0.863066E-01   -0.240924E-02    0.000000E+00
    0.863825E-01   -0.230762E-02    0.000000E+00
    0.864550E-01   -0.219824E-02    0.000000E+00
    0.865246E-01   -0.208538E-02    0.000000E+00
    0.865916E-01   -0.197235E-02    0.000000E+00
    0.866564E-01   -0.186155E-02    0.000000E+00
    0.867192E-01   -0.175457E-02    0.000000E+00
    0.867803E-01   -0.165239E-02    0.000000E+00
    0.861873E-01   -0.260305E-02    0.000000E+00
    0.862542E-01   -0.256059E-02    0.000000E+00
    0.863199E-01   -0.248992E-02    0.000000E+00
    0.863845E-01   -0.240119E-02    0.000000E+00
    0.864481E-01   -0.230010E-02    0.000000E+00
    0.865108E-01   -0.219169E-02    0.000000E+00
    0.865725E-01   -0.208011E-02    0.000000E+00
    0.866334E-01   -0.196853E-02    0.000000E+00
    0.866933E-01   -0.185924E-02    0.000000E+00
    0.867524E-01   -0.175376E-02    0.000000E+00
    0.868104E-01   -0.165299E-02    0.000000E+00
    0.863221E-01   -0.258037E-02    0.000000E+00
    0.863714E-01   -0.253861E-02    0.000000E+00
    0.864217E-01   -0.246959E-02    0.000000E+00
    0.864730E-01   -0.238314E-02    0.000000E+00
    0.865253E-01   -0.228471E-02    0.000000E+00
    0.865785E-01   -0.217910E-02    0.000000E+00
    0.866325E-01   -0.207029E-02    0.000000E+00
    0.866869E-01   -0.196136E-02    0.000000E+00
    0.867415E-01   -0.185450E-02    0.000000E+00
    0.867961E-01   -0.175120E-02    0.000000E+00
    0.868504E-01   -0.165236E-02    0.000000E+00
    0.864592E-01   -0.254380E-02    0.000000E+00
    0.864944E-01   -0.250427E-02    0.000000E+00
    0.865319E-01   -0.243869E-02    0.000000E+00
    0.865719E-01   -0.235623E-02    0.000000E+00
    0.866142E-01   -0.226200E-02    0.000000E+00
    0.866588E-01   -0.216057E-02    0.000000E+00
    0.867053E-01   -0.205572E-02    0.000000E+00
    0.867532E-01   -0.195040E-02    0.000000E+00
    0.868022E-01   -0.184676E-02    0.000000E+00
    0.868519E-01   -0.174626E-02    0.000000E+00
    0.869019E-01   -0.164982E-02    0.000000E+00
    0.865973E-01   -0.249649E-02    0.000000E+00
    0.866217E-01   -0.246021E-02    0.000000E+00
    0.866492E-01   -0.239920E-02    0.000000E+00
    0.866800E-01   -0.232183E-02    0.000000E+00
    0.867140E-01   -0.223285E-02    0.000000E+00
    0.867509E-01   -0.213653E-02    0.000000E+00
    0.867905E-01   -0.203645E-02    0.000000E+00
    0.868322E-01   -0.193545E-02    0.000000E+00
    0.868755E-01   -0.183563E-02    0.000000E+00
    0.869201E-01   -0.173843E-02    0.000000E+00
    0.869654E-01   -0.164480E-02    0.000000E+00
    0.867348E-01   -0.244166E-02    0.000000E+00
    0.867516E-01   -0.240917E-02    0.000000E+00
    0.867719E-01   -0.235333E-02    0.000000E+00
    0.867957E-01   -0.228162E-02    0.000000E+00
    0.868230E-01   -0.219841E-02    0.000000E+00
    0.868536E-01   -0.210769E-02    0.000000E+00
    0.868871E-01   -0.201285E-02    0.000000E+00
    0.869231E-01   -0.191658E-02    0.000000E+00
    0.869610E-01   -0.182094E-02    0.000000E+00
    0.870004E-01   -0.172739E-02    0.000000E+00
    0.870408E-01   -0.163688E-02    0.000000E+00
    0.868703E-01   -0.238259E-02    0.000000E+00
    0.868827E-01   -0.235401E-02    0.000000E+00
    0.868984E-01   -0.230343E-02    0.000000E+00
    0.869175E-01   -0.223743E-02    0.000000E+00
    0.869400E-01   -0.216005E-02    0.000000E+00
    0.869656E-01   -0.207499E-02    0.000000E+00
    0.869940E-01   -0.198545E-02    0.000000E+00
    0.870248E-01   -0.189403E-02    0.000000E+00
    0.870576E-01   -0.180271E-02    0.000000E+00
    0.870919E-01   -0.171294E-02    0.000000E+00
    0.871274E-01   -0.162572E-02    0.000000E+00
    0.870032E-01   -0.232260E-02    0.000000E+00
    0.870142E-01   -0.229769E-02    0.000000E+00
    0.870279E-01   -0.225197E-02    0.000000E+00
    0.870445E-01   -0.219125E-02    0.000000E+00
    0.870639E-01   -0.211926E-02    0.000000E+00
    0.870858E-01   -0.203949E-02    0.000000E+00
    0.871101E-01   -0.195495E-02    0.000000E+00
    0.871364E-01   -0.186816E-02    0.000000E+00
    0.871644E-01   -0.178103E-02    0.000000E+00
    0.871939E-01   -0.169502E-02    0.000000E+00
    0.872244E-01   -0.161110E-02    0.000000E+00
    0.871337E-01   -0.226510E-02    0.000000E+00
    0.871461E-01   -0.224319E-02    0.000000E+00
    0.871603E-01   -0.220144E-02    0.000000E+00
    0.871764E-01   -0.214504E-02    0.000000E+00
    0.871942E-01   -0.207752E-02    0.000000E+00
    0.872136E-01   -0.200221E-02    0.000000E+00
    0.872346E-01   -0.192201E-02    0.000000E+00
    0.872569E-01   -0.183932E-02    0.000000E+00
    0.872805E-01   -0.175602E-02    0.000000E+00
    0.873051E-01   -0.167351E-02    0.000000E+00
    0.873307E-01   -0.159279E-02    0.000000E+00
    0.872630E-01   -0.221353E-02    0.000000E+00
    0.872795E-01   -0.219347E-02    0.000000E+00
    0.872965E-01   -0.215419E-02    0.000000E+00
    0.873136E-01   -0.210058E-02    0.000000E+00
    0.873311E-01   -0.203610E-02    0.000000E+00
    0.873488E-01   -0.196398E-02    0.000000E+00
    0.873668E-01   -0.188706E-02    0.000000E+00
    0.873854E-01   -0.180767E-02    0.000000E+00
    0.874045E-01   -0.172760E-02    0.000000E+00
    0.874242E-01   -0.164822E-02    0.000000E+00
    0.874446E-01   -0.157047E-02    0.000000E+00
    0.859113E-01   -0.259734E-02    0.636164E-18
    0.860109E-01   -0.255755E-02    0.626419E-18
    0.861051E-01   -0.249191E-02    0.610342E-18
    0.861942E-01   -0.240643E-02    0.589406E-18
    0.862787E-01   -0.230700E-02    0.565052E-18
    0.863590E-01   -0.219890E-02    0.538574E-18
    0.864357E-01   -0.208655E-02    0.511057E-18
    0.865092E-01   -0.197343E-02    0.483352E-18
    0.865799E-01   -0.186211E-02    0.456086E-18
    0.866482E-01   -0.175435E-02    0.429691E-18
    0.867144E-01   -0.165123E-02    0.404436E-18
    0.860549E-01   -0.261259E-02    0.639899E-18
    0.861431E-01   -0.256770E-02    0.628906E-18
    0.862269E-01   -0.249789E-02    0.611805E-18
    0.863066E-01   -0.240924E-02    0.590092E-18
    0.863825E-01   -0.230762E-02    0.565204E-18
    0.864550E-01   -0.219824E-02    0.538413E-18
    0.865246E-01   -0.208538E-02    0.510770E-18
    0.865916E-01   -0.197235E-02    0.483086E-18
    0.866564E-01   -0.186155E-02    0.455947E-18
    0.867192E-01   -0.175457E-02    0.429746E-18
    0.867803E-01   -0.165239E-02    0.404719E-18
    0.861873E-01   -0.260722E-02    0.638586E-18
    0.862542E-01   -0.256059E-02    0.627163E-18
    0.863199E-01   -0.248992E-02    0.609855E-18
    0.863845E-01   -0.240119E-02    0.588121E-18
    0.864481E-01   -0.230010E-02    0.563362E-18
    0.865108E-01   -0.219169E-02    0.536810E-18
    0.865725E-01   -0.208011E-02    0.509480E-18
    0.866334E-01   -0.196853E-02    0.482151E-18
    0.866933E-01   -0.185924E-02    0.455382E-18
    0.867524E-01   -0.175376E-02    0.429547E-18
    0.868104E-01   -0.165299E-02    0.404866E-18
    0.863221E-01   -0.258452E-02    0.633024E-18
    0.863714E-01   -0.253861E-02    0.621780E-18
    0.864217E-01   -0.246959E-02    0.604876E-18
    0.864730E-01   -0.238314E-02    0.583702E-18
    0.865253E-01   -0.228471E-02    0.559592E-18
    0.865785E-01   -0.217910E-02    0.533725E-18
    0.866325E-01   -0.207029E-02    0.507076E-18
    0.866869E-01   -0.196136E-02    0.480394E-18
    0.867415E-01   -0.185450E-02    0.454222E-18
    0.867961E-01   -0.175120E-02    0.428921E-18
    0.868504E-01   -0.165236E-02    0.404711E-18
    0.864592E-01   -0.254770E-02    0.624007E-18
    0.864944E-01   -0.250427E-02    0.613370E-18
    0.865319E-01   -0.243869E-02    0.597306E-18
    0.865719E-01   -0.235623E-02    0.577109E-18
    0.866142E-01   -0.226200E-02    0.554031E-18
    0.866588E-01   -0.216057E-02    0.529187E-18
    0.867053E-01   -0.205572E-02    0.503506E-18
    0.867532E-01   -0.195040E-02    0.477709E-18
    0.868022E-01   -0.184676E-02    0.452325E-18
    0.868519E-01   -0.174626E-02    0.427710E-18
    0.869019E-01   -0.164982E-02    0.404089E-18
    0.865973E-01   -0.250001E-02    0.612327E-18
    0.866217E-01   -0.246021E-02    0.602578E-18
    0.866492E-01   -0.239920E-02    0.587634E-18
    0.866800E-01   -0.232183E-02    0.568685E-18
    0.867140E-01   -0.223285E-02    0.546891E-18
    0.867509E-01   -0.213653E-02    0.523299E-18
    0.867905E-01   -0.203645E-02    0.498788E-18
    0.868322E-01   -0.193545E-02    0.474049E-18
    0.868755E-01   -0.183563E-02    0.449599E-18
    0.869201E-01   -0.173843E-02    0.425793E-18
    0.869654E-01   -0.164480E-02    0.402861E-18
    0.867348E-01   -0.244473E-02    0.598786E-18
    0.867516E-01   -0.240917E-02    0.590077E-18
    0.867719E-01   -0.235333E-02    0.576398E-18
    0.867957E-01   -0.228162E-02    0.558835E-18
    0.868230E-01   -0.219841E-02    0.538456E-18
    0.868536E-01   -0.210769E-02    0.516236E-18
    0.868871E-01   -0.201285E-02    0.493005E-18
    0.869231E-01   -0.191658E-02    0.469427E-18
    0.869610E-01   -0.182094E-02    0.446002E-18
    0.870004E-01   -0.172739E-02    0.423088E-18
    0.870408E-01   -0.163688E-02    0.400919E-18
    0.868703E-01   -0.238517E-02    0.584197E-18
    0.868827E-01   -0.235401E-02    0.576567E-18
    0.868984E-01   -0.230343E-02    0.564177E-18
    0.869175E-01   -0.223743E-02    0.548013E-18
    0.869400E-01   -0.216005E-02    0.529060E-18
    0.869656E-01   -0.207499E-02    0.508226E-18
    0.869940E-01   -0.198545E-02    0.486295E-18
    0.870248E-01   -0.189403E-02    0.463903E-18
    0.870576E-01   -0.180271E-02    0.441536E-18
    0.870919E-01   -0.171294E-02    0.419550E-18
    0.871274E-01   -0.162572E-02    0.398187E-18
    0.870032E-01   -0.232471E-02    0.569390E-18
    0.870142E-01   -0.229769E-02    0.562772E-18
    0.870279E-01   -0.225197E-02    0.551574E-18
    0.870445E-01   -0.219125E-02    0.536702E-18
    0.870639E-01   -0.211926E-02    0.519070E-18
    0.870858E-01   -0.203949E-02    0.499530E-18
    0.871101E-01   -0.195495E-02    0.478826E-18
    0.871364E-01   -0.186816E-02    0.457567E-18
    0.871644E-01   -0.178103E-02    0.436228E-18
    0.871939E-01   -0.169502E-02    0.415159E-18
    0.872244E-01   -0.161110E-02    0.394607E-18
    0.871337E-01   -0.226683E-02    0.555213E-18
    0.871461E-01   -0.224319E-02    0.549423E-18
    0.871603E-01   -0.220144E-02    0.539197E-18
    0.871764E-01   -0.214504E-02    0.525383E-18
    0.871942E-01   -0.207752E-02    0.508847E-18
    0.872136E-01   -0.200221E-02    0.490401E-18
    0.872346E-01   -0.192201E-02    0.470757E-18
    0.872569E-01   -0.183932E-02    0.450503E-18
    0.872805E-01   -0.175602E-02    0.430101E-18
    0.873051E-01   -0.167351E-02    0.409893E-18
    0.873307E-01   -0.159279E-02    0.390122E-18
    0.872630E-01   -0.221503E-02    0.542526E-18
    0.872795E-01   -0.219347E-02    0.537246E-18
    0.872965E-01   -0.215419E-02    0.527624E-18
    0.873136E-01   -0.210058E-02    0.514493E-18
    0.873311E-01   -0.203610E-02    0.498700E-18
    0.873488E-01   -0.196398E-02    0.481037E-18
    0.873668E-01   -0.188706E-02    0.462198E-18
    0.873854E-01   -0.180767E-02    0.442750E-18
    0.874045E-01   -0.172760E-02    0.423141E-18
    0.874242E-01   -0.164822E-02    0.403699E-18
    0.874446E-01   -0.157047E-02    0.384655E-18
</DataArray>
</PointData>
<CellData>
<DataArray Name="DP" type="Float64" format="ascii" NumberOfComponents="1">
      0.000000E+0000
      0.000000E+0000
      0.000000E+0000
      0.000000E+0000
      0.000000E+0000
      0.000000E+0000
      0.000000E+0000
      0.000000E+0000
      0.000000E+0000
      0.000000E+0000
      0.000000E+0000
      0.000000E+0000
      0.000000E+0000
      0.000000E+0000
      0.000000E+0000
      0.000000E+0000
      0.000000E+0000
      0.000000E+0000
      0.000000E+0000
      0.000000E+0000
      0.000000E+0000
      0.000000E+0000
      0.000000E+0000
      0.000000E+0000
      0.000000E+0000
      0.000000E+0000
      0.000000E+0000
      0.000000E+0000
      0.000000E+0000
      0.000000E+0000
      0.000000E+0000
      0.000000E+0000
      0.000000E+0000
      0.000000E+0000
      0.000000E+0000
      0.000000E+0000
      0.000000E+0000
      0.000000E+0000
      0.000000E+0000
      0.000000E+0000
      0.000000E+0000
      0.000000E+0000
      0.000000E+0000
      0.000000E+0000
      0.000000E+0000
      0.000000E+0000
      0.000000E+0000
      0.000000E+0000
      0.000000E+0000
      0.000000E+0000
      0.000000E+0000
      0.000000E+0000
      0.000000E+0000
      0.000000E+0000
      0.000000E+0000
      0.000000E+0000
      0.000000E+0000
      0.000000E+0000
      0.000000E+0000
      0.000000E+0000
      0.000000E+0000
      0.000000E+0000
      0.000000E+0000
      0.000000E+0000
      0.000000E+0000
      0.000000E+0000
      0.000000E+0000
      0.000000E+0000
      0.000000E+0000
      0.000000E+0000
      0.000000E+0000
      0.000000E+0000
      0.000000E+0000
      0.000000E+0000
      0.000000E+0000
      0.000000E+0000
      0.000000E+0000
      0.000000E+0000
      0.000000E+0000
      0.000000E+0000
      0.000000E+0000
      0.000000E+0000
      0.000000E+0000
      0.000000E+0000
      0.000000E+0000
      0.000000E+0000
      0.000000E+0000
      0.000000E+0000
      0.000000E+0000
      0.000000E+0000
      0.000000E+0000
      0.000000E+0000
      0.000000E+0000
      0.000000E+0000
      0.000000E+0000
      0.000000E+0000
      0.000000E+0000
      0.000000E+0000
      0.000000E+0000
      0.000000E+0000
</DataArray>
<DataArray Name="P" type="Float64" format="ascii" NumberOfComponents="1">
      0.443126E+0000
      0.438312E+0000
      0.433450E+0000
      0.428539E+0000
      0.423578E+0000
      0.418568E+0000
      0.413506E+0000
      0.408394E+0000
      0.403230E+0000
      0.398015E+0000
      0.443111E+0000
      0.438298E+0000
      0.433437E+0000
      0.428526E+0000
      0.423566E+0000
      0.418556E+0000
      0.413495E+0000
      0.408384E+0000
      0.403220E+0000
      0.398005E+0000
      0.443097E+0000
      0.438285E+0000
      0.433424E+0000
      0.428514E+0000
      0.423554E+0000
      0.418545E+0000
      0.413485E+0000
      0.408373E+0000
      0.403211E+0000
      0.397996E+0000
      0.443083E+0000
      0.438272E+0000
      0.433411E+0000
      0.428502E+0000
      0.423543E+0000
      0.418534E+0000
      0.413474E+0000
      0.408363E+0000
      0.403201E+0000
      0.397987E+0000
      0.443070E+0000
      0.438259E+0000
      0.433399E+0000
      0.428490E+0000
      0.423532E+0000
      0.418523E+0000
      0.413464E+0000
      0.408354E+0000
      0.403192E+0000
      0.397979E+0000
      0.443058E+0000
      0.438247E+0000
      0.433388E+0000
      0.428479E+0000
      0.423521E+0000
      0.418513E+0000
      0.413454E+0000
      0.408344E+0000
      0.403183E+0000
      0.397970E+0000
      0.443047E+0000
      0.438236E+0000
      0.433377E+0000
      0.428469E+0000
      0.423511E+0000
      0.418503E+0000
      0.413445E+0000
      0.408335E+0000
      0.403175E+0000
      0.397962E+0000
      0.443036E+0000
      0.438225E+0000
      0.433366E+0000
      0.428459E+0000
      0.423501E+0000
      0.418494E+0000
      0.413436E+0000
      0.408327E+0000
      0.403166E+0000
      0.397954E+0000
      0.443025E+0000
      0.438215E+0000
      0.433357E+0000
      0.428449E+0000
      0.423492E+0000
      0.418485E+0000
      0.413427E+0000
      0.408318E+0000
      0.403158E+0000
      0.397946E+0000
      0.443016E+0000
      0.438206E+0000
      0.433347E+0000
      0.428440E+0000
      0.423483E+0000
      0.418476E+0000
      0.413419E+0000
      0.408310E+0000
      0.403150E+0000
      0.397939E+0000
</DataArray>
<DataArray Name="RHO" type="Float64" format="ascii" NumberOfComponents="1">
      0.117198E+0001
      0.117197E+0001
      0.117197E+0001
      0.117197E+0001
      0.117197E+0001
      0.117197E+0001
      0.117197E+0001
      0.117197E+0001
      0.117197E+0001
      0.117197E+0001
      0.117197E+0001
      0.117197E+0001
      0.117197E+0001
      0.117197E+0001
      0.117197E+0001
      0.117197E+0001
      0.117197E+0001
      0.117197E+0001
      0.117197E+0001
      0.117197E+0001
      0.117197E+0001
      0.117197E+0001
      0.117197E+0001
      0.117197E+0001
      0.117197E+0001
      0.117197E+0001
      0.117197E+0001
      0.117197E+0001
      0.117197E+0001
      0.117197E+0001
      0.117197E+0001
      0.117197E+0001
      0.117197E+0001
      0.117197E+0001
      0.117197E+0001
      0.117197E+0001
      0.117197E+0001
      0.117197E+0001
      0.117197E+0001
      0.117197E+0001
      0.117197E+0001
      0.117197E+0001
      0.117197E+0001
      0.117197E+0001
      0.117197E+0001
      0.117197E+0001
      0.117197E+0001
      0.117197E+0001
      0.117197E+0001
      0.117197E+0001
      0.117197E+0001
      0.117197E+0001
      0.117197E+0001
      0.117197E+0001
      0.117197E+0001
      0.117197E+0001
      0.117197E+0001
      0.117197E+0001
      0.117197E+0001
      0.117197E+0001
      0.117197E+0001
      0.117197E+0001