<?xml version="1.0"?>
<VTKFile type="StructuredGrid" version="0.1" byte_order="LittleEndian">
<StructuredGrid WholeExtent="         110         120          60          70           0           1">
<Piece Extent="         110         120          60          70           0           1">
<Points>
<DataArray NumberOfComponents="3" type="Float64" format="ascii">
    0.503557E-01    0.167655E-01    0.000000E+00
    0.511126E-01    0.167655E-01    0.000000E+00
    0.518770E-01    0.167655E-01    0.000000E+00
    0.526491E-01    0.167655E-01    0.000000E+00
    0.534289E-01    0.167655E-01    0.000000E+00
    0.542166E-01    0.167655E-01    0.000000E+00
    0.550121E-01    0.167655E-01    0.000000E+00
    0.558155E-01    0.167655E-01    0.000000E+00
    0.566270E-01    0.167655E-01    0.000000E+00
    0.574466E-01    0.167655E-01    0.000000E+00
    0.582744E-01    0.167655E-01    0.000000E+00
    0.503557E-01    0.172792E-01    0.000000E+00
    0.511126E-01    0.172792E-01    0.000000E+00
    0.518770E-01    0.172792E-01    0.000000E+00
    0.526491E-01    0.172792E-01    0.000000E+00
    0.534289E-01    0.172792E-01    0.000000E+00
    0.542166E-01    0.172792E-01    0.000000E+00
    0.550121E-01    0.172792E-01    0.000000E+00
    0.558155E-01    0.172792E-01    0.000000E+00
    0.566270E-01    0.172792E-01    0.000000E+00
    0.574466E-01    0.172792E-01    0.000000E+00
    0.582744E-01    0.172792E-01    0.000000E+00
    0.503557E-01    0.178083E-01    0.000000E+00
    0.511126E-01    0.178083E-01    0.000000E+00
    0.518770E-01    0.178083E-01    0.000000E+00
    0.526491E-01    0.178083E-01    0.000000E+00
    0.534289E-01    0.178083E-01    0.000000E+00
    0.542166E-01    0.178083E-01    0.000000E+00
    0.550121E-01    0.178083E-01    0.000000E+00
    0.558155E-01    0.178083E-01    0.000000E+00
    0.566270E-01    0.178083E-01    0.000000E+00
    0.574466E-01    0.178083E-01    0.000000E+00
    0.582744E-01    0.178083E-01    0.000000E+00
    0.503557E-01    0.183533E-01    0.000000E+00
    0.511126E-01    0.183533E-01    0.000000E+00
    0.518770E-01    0.183533E-01    0.000000E+00
    0.526491E-01    0.183533E-01    0.000000E+00
    0.534289E-01    0.183533E-01    0.000000E+00
    0.542166E-01    0.183533E-01    0.000000E+00
    0.550121E-01    0.183533E-01    0.000000E+00
    0.558155E-01    0.183533E-01    0.000000E+00
    0.566270E-01    0.183533E-01    0.000000E+00
    0.574466E-01    0.183533E-01    0.000000E+00
    0.582744E-01    0.183533E-01    0.000000E+00
    0.503557E-01    0.189147E-01    0.000000E+00
    0.511126E-01    0.189147E-01    0.000000E+00
    0.518770E-01    0.189147E-01    0.000000E+00
    0.526491E-01    0.189147E-01    0.000000E+00
    0.534289E-01    0.189147E-01    0.000000E+00
    0.542166E-01    0.189147E-01    0.000000E+00
    0.550121E-01    0.189147E-01    0.000000E+00
    0.558155E-01    0.189147E-01    0.000000E+00
    0.566270E-01    0.189147E-01    0.000000E+00
    0.574466E-01    0.189147E-01    0.000000E+00
    0.582744E-01    0.189147E-01    0.000000E+00
    0.503557E-01    0.194929E-01    0.000000E+00
    0.511126E-01    0.194929E-01    0.000000E+00
    0.518770E-01    0.194929E-01    0.000000E+00
    0.526491E-01    0.194929E-01    0.000000E+00
    0.534289E-01    0.194929E-01    0.000000E+00
    0.542166E-01    0.194929E-01    0.000000E+00
    0.550121E-01    0.194929E-01    0.000000E+00
    0.558155E-01    0.194929E-01    0.000000E+00
    0.566270E-01    0.194929E-01    0.000000E+00
    0.574466E-01    0.194929E-01    0.000000E+00
    0.582744E-01    0.194929E-01    0.000000E+00
    0.503557E-01    0.200884E-01    0.000000E+00
    0.511126E-01    0.200884E-01    0.000000E+00
    0.518770E-01    0.200884E-01    0.000000E+00
    0.526491E-01    0.200884E-01    0.000000E+00
    0.534289E-01    0.200884E-01    0.000000E+00
    0.542166E-01    0.200884E-01    0.000000E+00
    0.550121E-01    0.200884E-01    0.000000E+00
    0.558155E-01    0.200884E-01    0.000000E+00
    0.566270E-01    0.200884E-01    0.000000E+00
    0.574466E-01    0.200884E-01    0.000000E+00
    0.582744E-01    0.200884E-01    0.000000E+00
    0.503557E-01    0.207018E-01    0.000000E+00
    0.511126E-01    0.207018E-01    0.000000E+00
    0.518770E-01    0.207018E-01    0.000000E+00
    0.526491E-01    0.207018E-01    0.000000E+00
    0.534289E-01    0.207018E-01    0.000000E+00
    0.542166E-01    0.207018E-01    0.000000E+00
    0.550121E-01    0.207018E-01    0.000000E+00
    0.558155E-01    0.207018E-01    0.000000E+00
    0.566270E-01    0.207018E-01    0.000000E+00
    0.574466E-01    0.207018E-01    0.000000E+00
    0.582744E-01    0.207018E-01    0.000000E+00
    0.503557E-01    0.213336E-01    0.000000E+00
    0.511126E-01    0.213336E-01    0.000000E+00
    0.518770E-01    0.213336E-01    0.000000E+00
    0.526491E-01    0.213336E-01    0.000000E+00
    0.534289E-01    0.213336E-01    0.000000E+00
    0.542166E-01    0.213336E-01    0.000000E+00
    0.550121E-01    0.213336E-01    0.000000E+00
    0.558155E-01    0.213336E-01    0.000000E+00
    0.566270E-01    0.213336E-01    0.000000E+00
    0.574466E-01    0.213336E-01    0.000000E+00
    0.582744E-01    0.213336E-01    0.000000E+00
    0.503557E-01    0.219843E-01    0.000000E+00
    0.511126E-01    0.219843E-01    0.000000E+00
    0.518770E-01    0.219843E-01    0.000000E+00
    0.526491E-01    0.219843E-01    0.000000E+00
    0.534289E-01    0.219843E-01    0.000000E+00
    0.542166E-01    0.219843E-01    0.000000E+00
    0.550121E-01    0.219843E-01    0.000000E+00
    0.558155E-01    0.219843E-01    0.000000E+00
    0.566270E-01    0.219843E-01    0.000000E+00
    0.574466E-01    0.219843E-01    0.000000E+00
    0.582744E-01    0.219843E-01    0.000000E+00
    0.503557E-01    0.226546E-01    0.000000E+00
    0.511126E-01    0.226546E-01    0.000000E+00
    0.518770E-01    0.226546E-01    0.000000E+00
    0.526491E-01    0.226546E-01    0.000000E+00
    0.534289E-01    0.226546E-01    0.000000E+00
    0.542166E-01    0.226546E-01    0.000000E+00
    0.550121E-01    0.226546E-01    0.000000E+00
    0.558155E-01    0.226546E-01    0.000000E+00
    0.566270E-01    0.226546E-01    0.000000E+00
    0.574466E-01    0.226546E-01    0.000000E+00
    0.582744E-01    0.226546E-01    0.000000E+00
    0.503557E-01    0.167655E-01    0.160000E-02
    0.511126E-01    0.167655E-01    0.160000E-02
    0.518770E-01    0.167655E-01    0.160000E-02
    0.526491E-01    0.167655E-01    0.160000E-02
    0.534289E-01    0.167655E-01    0.160000E-02
    0.542166E-01    0.167655E-01    0.160000E-02
    0.550121E-01    0.167655E-01    0.160000E-02
    0.558155E-01    0.167655E-01    0.160000E-02
    0.566270E-01    0.167655E-01    0.160000E-02
    0.574466E-01    0.167655E-01    0.160000E-02
    0.582744E-01    0.167655E-01    0.160000E-02
    0.503557E-01    0.172792E-01    0.160000E-02
    0.511126E-01    0.172792E-01    0.160000E-02
    0.518770E-01    0.172792E-01    0.160000E-02
    0.526491E-01    0.172792E-01    0.160000E-02
    0.534289E-01    0.172792E-01    0.160000E-02
    0.542166E-01    0.172792E-01    0.160000E-02
    0.550121E-01    0.172792E-01    0.160000E-02
    0.558155E-01    0.172792E-01    0.160000E-02
    0.566270E-01    0.172792E-01    0.160000E-02
    0.574466E-01    0.172792E-01    0.160000E-02
    0.582744E-01    0.172792E-01    0.160000E-02
    0.503557E-01    0.178083E-01    0.160000E-02
    0.511126E-01    0.178083E-01    0.160000E-02
    0.518770E-01    0.178083E-01    0.160000E-02
    0.526491E-01    0.178083E-01    0.160000E-02
    0.534289E-01    0.178083E-01    0.160000E-02
    0.542166E-01    0.178083E-01    0.160000E-02
    0.550121E-01    0.178083E-01    0.160000E-02
    0.558155E-01    0.178083E-01    0.160000E-02
    0.566270E-01    0.178083E-01    0.160000E-02
    0.574466E-01    0.178083E-01    0.160000E-02
    0.582744E-01    0.178083E-01    0.160000E-02
    0.503557E-01    0.183533E-01    0.160000E-02
    0.511126E-01    0.183533E-01    0.160000E-02
    0.518770E-01    0.183533E-01    0.160000E-02
    0.526491E-01    0.183533E-01    0.160000E-02
    0.534289E-01    0.183533E-01    0.160000E-02
    0.542166E-01    0.183533E-01    0.160000E-02
    0.550121E-01    0.183533E-01    0.160000E-02
    0.558155E-01    0.183533E-01    0.160000E-02
    0.566270E-01    0.183533E-01    0.160000E-02
    0.574466E-01    0.183533E-01    0.160000E-02
    0.582744E-01    0.183533E-01    0.160000E-02
    0.503557E-01    0.189147E-01    0.160000E-02
    0.511126E-01    0.189147E-01    0.160000E-02
    0.518770E-01    0.189147E-01    0.160000E-02
    0.526491E-01    0.189147E-01    0.160000E-02
    0.534289E-01    0.189147E-01    0.160000E-02
    0.542166E-01    0.189147E-01    0.160000E-02
    0.550121E-01    0.189147E-01    0.160000E-02
    0.558155E-01    0.189147E-01    0.160000E-02
    0.566270E-01    0.189147E-01    0.160000E-02
    0.574466E-01    0.189147E-01    0.160000E-02
    0.582744E-01    0.189147E-01    0.160000E-02
    0.503557E-01    0.194929E-01    0.160000E-02
    0.511126E-01    0.194929E-01    0.160000E-02
    0.518770E-01    0.194929E-01    0.160000E-02
    0.526491E-01    0.194929E-01    0.160000E-02
    0.534289E-01    0.194929E-01    0.160000E-02
    0.542166E-01    0.194929E-01    0.160000E-02
    0.550121E-01    0.194929E-01    0.160000E-02
    0.558155E-01    0.194929E-01    0.160000E-02
    0.566270E-01    0.194929E-01    0.160000E-02
    0.574466E-01    0.194929E-01    0.160000E-02
    0.582744E-01    0.194929E-01    0.160000E-02
    0.503557E-01    0.200884E-01    0.160000E-02
    0.511126E-01    0.200884E-01    0.160000E-02
    0.518770E-01    0.200884E-01    0.160000E-02
    0.526491E-01    0.200884E-01    0.160000E-02
    0.534289E-01    0.200884E-01    0.160000E-02
    0.542166E-01    0.200884E-01    0.160000E-02
    0.550121E-01    0.200884E-01    0.160000E-02
    0.558155E-01    0.200884E-01    0.160000E-02
    0.566270E-01    0.200884E-01    0.160000E-02
    0.574466E-01    0.200884E-01    0.160000E-02
    0.582744E-01    0.200884E-01    0.160000E-02
    0.503557E-01    0.207018E-01    0.160000E-02
    0.511126E-01    0.207018E-01    0.160000E-02
    0.518770E-01    0.207018E-01    0.160000E-02
    0.526491E-01    0.207018E-01    0.160000E-02
    0.534289E-01    0.207018E-01    0.160000E-02
    0.542166E-01    0.207018E-01    0.160000E-02
    0.550121E-01    0.207018E-01    0.160000E-02
    0.558155E-01    0.207018E-01    0.160000E-02
    0.566270E-01    0.207018E-01    0.160000E-02
    0.574466E-01    0.207018E-01    0.160000E-02
    0.582744E-01    0.207018E-01    0.160000E-02
    0.503557E-01    0.213336E-01    0.160000E-02
    0.511126E-01    0.213336E-01    0.160000E-02
    0.518770E-01    0.213336E-01    0.160000E-02
    0.526491E-01    0.213336E-01    0.160000E-02
    0.534289E-01    0.213336E-01    0.160000E-02
    0.542166E-01    0.213336E-01    0.160000E-02
    0.550121E-01    0.213336E-01    0.160000E-02
    0.558155E-01    0.213336E-01    0.160000E-02
    0.566270E-01    0.213336E-01    0.160000E-02
    0.574466E-01    0.213336E-01    0.160000E-02
    0.582744E-01    0.213336E-01    0.160000E-02
    0.503557E-01    0.219843E-01    0.160000E-02
    0.511126E-01    0.219843E-01    0.160000E-02
    0.518770E-01    0.219843E-01    0.160000E-02
    0.526491E-01    0.219843E-01    0.160000E-02
    0.534289E-01    0.219843E-01    0.160000E-02
    0.542166E-01    0.219843E-01    0.160000E-02
    0.550121E-01    0.219843E-01    0.160000E-02
    0.558155E-01    0.219843E-01    0.160000E-02
    0.566270E-01    0.219843E-01    0.160000E-02
    0.574466E-01    0.219843E-01    0.160000E-02
    0.582744E-01    0.219843E-01    0.160000E-02
    0.503557E-01    0.226546E-01    0.160000E-02
    0.511126E-01    0.226546E-01    0.160000E-02
    0.518770E-01    0.226546E-01    0.160000E-02
    0.526491E-01    0.226546E-01    0.160000E-02
    0.534289E-01    0.226546E-01    0.160000E-02
    0.542166E-01    0.226546E-01    0.160000E-02
    0.550121E-01    0.226546E-01    0.160000E-02
    0.558155E-01    0.226546E-01    0.160000E-02
    0.566270E-01    0.226546E-01    0.160000E-02
    0.574466E-01    0.226546E-01    0.160000E-02
    0.582744E-01    0.226546E-01    0.160000E-02
</DataArray>
</Points>
<PointData>
<DataArray Name="Velocity" type="Float64" format="ascii" NumberOfComponents="3">
    0.883979E-01    0.781410E-04    0.000000E+00
    0.883998E-01    0.716610E-04    0.000000E+00
    0.884013E-01    0.648439E-04    0.000000E+00
    0.884025E-01    0.586222E-04    0.000000E+00
    0.884035E-01    0.529521E-04    0.000000E+00
    0.884043E-01    0.477920E-04    0.000000E+00
    0.884049E-01    0.431021E-04    0.000000E+00
    0.884054E-01    0.388451E-04    0.000000E+00
    0.884057E-01    0.349855E-04    0.000000E+00
    0.884059E-01    0.314904E-04    0.000000E+00
    0.884061E-01    0.283287E-04    0.000000E+00
    0.883930E-01    0.742815E-04    0.000000E+00
    0.883953E-01    0.682318E-04    0.000000E+00
    0.883972E-01    0.618515E-04    0.000000E+00
    0.883989E-01    0.560137E-04    0.000000E+00
    0.884002E-01    0.506808E-04    0.000000E+00
    0.884013E-01    0.458164E-04    0.000000E+00
    0.884022E-01    0.413859E-04    0.000000E+00
    0.884029E-01    0.373560E-04    0.000000E+00
    0.884035E-01    0.336953E-04    0.000000E+00
    0.884039E-01    0.303742E-04    0.000000E+00
    0.884043E-01    0.273644E-04    0.000000E+00
    0.883877E-01    0.702098E-04    0.000000E+00
    0.883904E-01    0.646054E-04    0.000000E+00
    0.883928E-01    0.586783E-04    0.000000E+00
    0.883948E-01    0.532399E-04    0.000000E+00
    0.883965E-01    0.482585E-04    0.000000E+00
    0.883979E-01    0.437034E-04    0.000000E+00
    0.883991E-01    0.395446E-04    0.000000E+00
    0.884001E-01    0.357532E-04    0.000000E+00
    0.884009E-01    0.323017E-04    0.000000E+00
    0.884016E-01    0.291640E-04    0.000000E+00
    0.884021E-01    0.263148E-04    0.000000E+00
    0.883816E-01    0.658471E-04    0.000000E+00
    0.883849E-01    0.607071E-04    0.000000E+00
    0.883877E-01    0.552544E-04    0.000000E+00
    0.883901E-01    0.502354E-04    0.000000E+00
    0.883922E-01    0.456246E-04    0.000000E+00
    0.883940E-01    0.413965E-04    0.000000E+00
    0.883955E-01    0.375260E-04    0.000000E+00
    0.883968E-01    0.339887E-04    0.000000E+00
    0.883979E-01    0.307609E-04    0.000000E+00
    0.883989E-01    0.278198E-04    0.000000E+00
    0.883997E-01    0.251436E-04    0.000000E+00
    0.883757E-01    0.611728E-04    0.000000E+00
    0.883794E-01    0.565168E-04    0.000000E+00
    0.883827E-01    0.515601E-04    0.000000E+00
    0.883855E-01    0.469815E-04    0.000000E+00
    0.883880E-01    0.427611E-04    0.000000E+00
    0.883902E-01    0.388788E-04    0.000000E+00
    0.883920E-01    0.353144E-04    0.000000E+00
    0.883936E-01    0.320478E-04    0.000000E+00
    0.883950E-01    0.290590E-04    0.000000E+00
    0.883962E-01    0.263291E-04    0.000000E+00
    0.883972E-01    0.238390E-04    0.000000E+00
    0.883706E-01    0.562087E-04    0.000000E+00
    0.883747E-01    0.520536E-04    0.000000E+00
    0.883783E-01    0.476120E-04    0.000000E+00
    0.883815E-01    0.434923E-04    0.000000E+00
    0.883844E-01    0.396803E-04    0.000000E+00
    0.883868E-01    0.361611E-04    0.000000E+00
    0.883890E-01    0.329192E-04    0.000000E+00
    0.883909E-01    0.299386E-04    0.000000E+00
    0.883925E-01    0.272035E-04    0.000000E+00
    0.883939E-01    0.246982E-04    0.000000E+00
    0.883951E-01    0.224070E-04    0.000000E+00
    0.883665E-01    0.510058E-04    0.000000E+00
    0.883710E-01    0.473637E-04    0.000000E+00
    0.883749E-01    0.434515E-04    0.000000E+00
    0.883784E-01    0.398050E-04    0.000000E+00
    0.883815E-01    0.364156E-04    0.000000E+00
    0.883842E-01    0.332734E-04    0.000000E+00
    0.883866E-01    0.303673E-04    0.000000E+00
    0.883887E-01    0.276857E-04    0.000000E+00
    0.883905E-01    0.252164E-04    0.000000E+00
    0.883921E-01    0.229472E-04    0.000000E+00
    0.883935E-01    0.208657E-04    0.000000E+00
    0.883637E-01    0.456343E-04    0.000000E+00
    0.883684E-01    0.425113E-04    0.000000E+00
    0.883726E-01    0.391364E-04    0.000000E+00
    0.883762E-01    0.359720E-04    0.000000E+00
    0.883795E-01    0.330144E-04    0.000000E+00
    0.883824E-01    0.302585E-04    0.000000E+00
    0.883850E-01    0.276976E-04    0.000000E+00
    0.883872E-01    0.253241E-04    0.000000E+00
    0.883892E-01    0.231296E-04    0.000000E+00
    0.883909E-01    0.211052E-04    0.000000E+00
    0.883925E-01    0.192414E-04    0.000000E+00
    0.883621E-01    0.401732E-04    0.000000E+00
    0.883669E-01    0.375687E-04    0.000000E+00
    0.883712E-01    0.347322E-04    0.000000E+00
    0.883750E-01    0.320522E-04    0.000000E+00
    0.883784E-01    0.295300E-04    0.000000E+00
    0.883814E-01    0.271647E-04    0.000000E+00
    0.883841E-01    0.249538E-04    0.000000E+00
    0.883864E-01    0.228936E-04    0.000000E+00
    0.883885E-01    0.209791E-04    0.000000E+00
    0.883903E-01    0.192047E-04    0.000000E+00
    0.883919E-01    0.175639E-04    0.000000E+00
    0.883614E-01    0.346981E-04    0.000000E+00
    0.883662E-01    0.326048E-04    0.000000E+00
    0.883706E-01    0.303008E-04    0.000000E+00
    0.883744E-01    0.281014E-04    0.000000E+00
    0.883778E-01    0.260124E-04    0.000000E+00
    0.883809E-01    0.240370E-04    0.000000E+00
    0.883836E-01    0.221765E-04    0.000000E+00
    0.883860E-01    0.204306E-04    0.000000E+00
    0.883882E-01    0.187978E-04    0.000000E+00
    0.883900E-01    0.172755E-04    0.000000E+00
    0.883917E-01    0.158599E-04    0.000000E+00
    0.883606E-01    0.292608E-04    0.000000E+00
    0.883654E-01    0.276654E-04    0.000000E+00
    0.883698E-01    0.258818E-04    0.000000E+00
    0.883737E-01    0.241540E-04    0.000000E+00
    0.883772E-01    0.224915E-04    0.000000E+00
    0.883803E-01    0.209013E-04    0.000000E+00
    0.883830E-01    0.193880E-04    0.000000E+00
    0.883855E-01    0.179546E-04    0.000000E+00
    0.883877E-01    0.166026E-04    0.000000E+00
    0.883896E-01    0.153323E-04    0.000000E+00
    0.883913E-01    0.141426E-04    0.000000E+00
    0.883987E-01    0.791195E-04   -0.193787E-19
    0.884005E-01    0.716610E-04   -0.175519E-19
    0.884020E-01    0.648439E-04   -0.158822E-19
    0.884032E-01    0.586222E-04   -0.143583E-19
    0.884041E-01    0.529521E-04   -0.129695E-19
    0.884048E-01    0.477920E-04   -0.117057E-19
    0.884054E-01    0.431021E-04   -0.105570E-19
    0.884058E-01    0.388451E-04   -0.951430E-20
    0.884061E-01    0.349855E-04   -0.856897E-20
    0.884063E-01    0.314904E-04   -0.771292E-20
    0.884064E-01    0.283287E-04   -0.693852E-20
    0.883930E-01    0.751936E-04   -0.184171E-19
    0.883953E-01    0.682318E-04   -0.167120E-19
    0.883972E-01    0.618515E-04   -0.151493E-19
    0.883989E-01    0.560137E-04   -0.137194E-19
    0.884002E-01    0.506808E-04   -0.124132E-19
    0.884013E-01    0.458164E-04   -0.112218E-19
    0.884022E-01    0.413859E-04   -0.101366E-19
    0.884029E-01    0.373560E-04   -0.914959E-20
    0.884035E-01    0.336953E-04   -0.825298E-20
    0.884039E-01    0.303742E-04   -0.743953E-20
    0.884043E-01    0.273644E-04   -0.670234E-20
    0.883877E-01    0.710534E-04   -0.174031E-19
    0.883904E-01    0.646054E-04   -0.158237E-19
    0.883928E-01    0.586783E-04   -0.143720E-19
    0.883948E-01    0.532399E-04   -0.130400E-19
    0.883965E-01    0.482585E-04   -0.118199E-19
    0.883979E-01    0.437034E-04   -0.107042E-19
    0.883991E-01    0.395446E-04   -0.968562E-20
    0.884001E-01    0.357532E-04   -0.875701E-20
    0.884009E-01    0.323017E-04   -0.791164E-20
    0.884016E-01    0.291640E-04   -0.714311E-20
    0.884021E-01    0.263148E-04   -0.644526E-20
    0.883816E-01    0.666193E-04   -0.163170E-19
    0.883849E-01    0.607071E-04   -0.148689E-19
    0.883877E-01    0.552544E-04   -0.135334E-19
    0.883901E-01    0.502354E-04   -0.123041E-19
    0.883922E-01    0.456246E-04   -0.111748E-19
    0.883940E-01    0.413965E-04   -0.101392E-19
    0.883955E-01    0.375260E-04   -0.919123E-20
    0.883968E-01    0.339887E-04   -0.832484E-20
    0.883979E-01    0.307609E-04   -0.753424E-20
    0.883989E-01    0.278198E-04   -0.681390E-20
    0.883997E-01    0.251436E-04   -0.615840E-20
    0.883757E-01    0.618708E-04   -0.151540E-19
    0.883794E-01    0.565168E-04   -0.138426E-19
    0.883827E-01    0.515601E-04   -0.126286E-19
    0.883855E-01    0.469815E-04   -0.115071E-19
    0.883880E-01    0.427611E-04   -0.104734E-19
    0.883902E-01    0.388788E-04   -0.952256E-20
    0.883920E-01    0.353144E-04   -0.864954E-20
    0.883936E-01    0.320478E-04   -0.784944E-20
    0.883950E-01    0.290590E-04   -0.711741E-20
    0.883962E-01    0.263291E-04   -0.644876E-20
    0.883972E-01    0.238390E-04   -0.583887E-20
    0.883706E-01    0.568301E-04   -0.139194E-19
    0.883747E-01    0.520536E-04   -0.127495E-19
    0.883783E-01    0.476120E-04   -0.116616E-19
    0.883815E-01    0.434923E-04   -0.106525E-19
    0.883844E-01    0.396803E-04   -0.971886E-20
    0.883868E-01    0.361611E-04   -0.885691E-20
    0.883890E-01    0.329192E-04   -0.806287E-20
    0.883909E-01    0.299386E-04   -0.733284E-20
    0.883925E-01    0.272035E-04   -0.666293E-20
    0.883939E-01    0.246982E-04   -0.604931E-20
    0.883951E-01    0.224070E-04   -0.548812E-20
    0.883665E-01    0.515489E-04   -0.126258E-19
    0.883710E-01    0.473637E-04   -0.116008E-19
    0.883749E-01    0.434515E-04   -0.106426E-19
    0.883784E-01    0.398050E-04   -0.974942E-20
    0.883815E-01    0.364156E-04   -0.891926E-20
    0.883842E-01    0.332734E-04   -0.814964E-20
    0.883866E-01    0.303673E-04   -0.743785E-20
    0.883887E-01    0.276857E-04   -0.678104E-20
    0.883905E-01    0.252164E-04   -0.617624E-20
    0.883921E-01    0.229472E-04   -0.562045E-20
    0.883935E-01    0.208657E-04   -0.511061E-20
    0.883637E-01    0.460981E-04   -0.112908E-19
    0.883684E-01    0.425113E-04   -0.104123E-19
    0.883726E-01    0.391364E-04   -0.958566E-20
    0.883762E-01    0.359720E-04   -0.881059E-20
    0.883795E-01    0.330144E-04   -0.808619E-20
    0.883824E-01    0.302585E-04   -0.741119E-20
    0.883850E-01    0.276976E-04   -0.678396E-20
    0.883872E-01    0.253241E-04   -0.620263E-20
    0.883892E-01    0.231296E-04   -0.566512E-20
    0.883909E-01    0.211052E-04   -0.516928E-20
    0.883925E-01    0.192414E-04   -0.471278E-20
    0.883621E-01    0.405582E-04   -0.993388E-20
    0.883669E-01    0.375687E-04   -0.920167E-20
    0.883712E-01    0.347322E-04   -0.850695E-20
    0.883750E-01    0.320522E-04   -0.785054E-20
    0.883784E-01    0.295300E-04   -0.723276E-20
    0.883814E-01    0.271647E-04   -0.665343E-20
    0.883841E-01    0.249538E-04   -0.611193E-20
    0.883864E-01    0.228936E-04   -0.560732E-20
    0.883885E-01    0.209791E-04   -0.513840E-20
    0.883903E-01    0.192047E-04   -0.470380E-20
    0.883919E-01    0.175639E-04   -0.430191E-20
    0.883614E-01    0.350054E-04   -0.857386E-20
    0.883662E-01    0.326048E-04   -0.798586E-20
    0.883706E-01    0.303008E-04   -0.742155E-20
    0.883744E-01    0.281014E-04   -0.688286E-20
    0.883778E-01    0.260124E-04   -0.637120E-20
    0.883809E-01    0.240370E-04   -0.588736E-20
    0.883836E-01    0.221765E-04   -0.543167E-20
    0.883860E-01    0.204306E-04   -0.500406E-20
    0.883882E-01    0.187978E-04   -0.460413E-20
    0.883900E-01    0.172755E-04   -0.423127E-20
    0.883917E-01    0.158599E-04   -0.388457E-20
    0.883606E-01    0.294927E-04   -0.722362E-20
    0.883654E-01    0.276654E-04   -0.677606E-20
    0.883698E-01    0.258818E-04   -0.633921E-20
    0.883737E-01    0.241540E-04   -0.591603E-20
    0.883772E-01    0.224915E-04   -0.550884E-20
    0.883803E-01    0.209013E-04   -0.511933E-20
    0.883830E-01    0.193880E-04   -0.474868E-20
    0.883855E-01    0.179546E-04   -0.439762E-20
    0.883877E-01    0.166026E-04   -0.406647E-20
    0.883896E-01    0.153323E-04   -0.375533E-20
    0.883913E-01    0.141426E-04   -0.346393E-20
</DataArray>
</PointData>
<CellData>
<DataArray Name="DP" type="Float64" format="ascii" NumberOfComponents="1">
      0.000000E+0000
      0.000000E+0000
      0.000000E+0000
      0.000000E+0000
      0.000000E+0000
      0.000000E+0000
      0.000000E+0000
      0.000000E+0000
      0.000000E+0000
      0.000000E+0000
      0.000000E+0000
      0.000000E+0000
      0.000000E+0000
      0.000000E+0000
      0.000000E+0000
      0.000000E+0000
      0.000000E+0000
      0.000000E+0000
      0.000000E+0000
      0.000000E+0000
      0.000000E+0000
      0.000000E+0000
      0.000000E+0000
      0.000000E+0000
      0.000000E+0000
      0.000000E+0000
      0.000000E+0000
      0.000000E+0000
      0.000000E+0000
      0.000000E+0000
      0.000000E+0000
      0.000000E+0000
      0.000000E+0000
      0.000000E+0000
      0.000000E+0000
      0.000000E+0000
      0.000000E+0000
      0.000000E+0000
      0.000000E+0000
      0.000000E+0000
      0.000000E+0000
      0.000000E+0000
      0.000000E+0000
      0.000000E+0000
      0.000000E+0000
      0.000000E+0000
      0.000000E+0000
      0.000000E+0000
      0.000000E+0000
      0.000000E+0000
      0.000000E+0000
      0.000000E+0000
      0.000000E+0000
      0.000000E+0000
      0.000000E+0000
      0.000000E+0000
      0.000000E+0000
      0.000000E+0000
      0.000000E+0000
      0.000000E+0000
      0.000000E+0000
      0.000000E+0000
      0.000000E+0000
      0.000000E+0000
      0.000000E+0000
      0.000000E+0000
      0.000000E+0000
      0.000000E+0000
      0.000000E+0000
      0.000000E+0000
      0.000000E+0000
      0.000000E+0000
      0.000000E+0000
      0.000000E+0000
      0.000000E+0000
      0.000000E+0000
      0.000000E+0000
      0.000000E+0000
      0.000000E+0000
      0.000000E+0000
      0.000000E+0000
      0.000000E+0000
      0.000000E+0000
      0.000000E+0000
      0.000000E+0000
      0.000000E+0000
      0.000000E+0000
      0.000000E+0000
      0.000000E+0000
      0.000000E+0000
      0.000000E+0000
      0.000000E+0000
      0.000000E+0000
      0.000000E+0000
      0.000000E+0000
      0.000000E+0000
      0.000000E+0000
      0.000000E+0000
      0.000000E+0000
      0.000000E+0000
</DataArray>
<DataArray Name="P" type="Float64" format="ascii" NumberOfComponents="1">
      0.500145E-0001
      0.412690E-0001
      0.324361E-0001
      0.235149E-0001
      0.145045E-0001
      0.540410E-0002
     -0.378718E-0002
     -0.130703E-0001
     -0.224462E-0001
     -0.319159E-0001
      0.500107E-0001
      0.412654E-0001
      0.324326E-0001
      0.235115E-0001
      0.145013E-0001
      0.540105E-0002
     -0.379014E-0002
     -0.130732E-0001
     -0.224490E-0001
     -0.319187E-0001
      0.500068E-0001
      0.412617E-0001
      0.324291E-0001
      0.235082E-0001
      0.144981E-0001
      0.539795E-0002
     -0.379315E-0002
     -0.130761E-0001
     -0.224519E-0001
     -0.319215E-0001
      0.500029E-0001
      0.412580E-0001
      0.324256E-0001
      0.235048E-0001
      0.144948E-0001
      0.539479E-0002
     -0.379621E-0002
     -0.130791E-0001
     -0.224548E-0001
     -0.319244E-0001
      0.499990E-0001
      0.412542E-0001
      0.324220E-0001
      0.235013E-0001
      0.144915E-0001
      0.539159E-0002
     -0.379931E-0002
     -0.130821E-0001
     -0.224578E-0001
     -0.319272E-0001
      0.499950E-0001
      0.412504E-0001
      0.324183E-0001
      0.234978E-0001
      0.144882E-0001
      0.538835E-0002
     -0.380246E-0002
     -0.130852E-0001
     -0.224608E-0001
     -0.319301E-0001
      0.499911E-0001
      0.412466E-0001
      0.324147E-0001
      0.234943E-0001
      0.144848E-0001
      0.538506E-0002
     -0.380564E-0002
     -0.130883E-0001
     -0.224638E-0001
     -0.319331E-0001
      0.499871E-0001
      0.412428E-0001
      0.324110E-0001
      0.234908E-0001
      0.144813E-0001
      0.538174E-0002
     -0.380885E-0002
     -0.130914E-0001
     -0.224668E-0001
     -0.319360E-0001
      0.499831E-0001
      0.412389E-0001
      0.324073E-0001
      0.234872E-0001
      0.144779E-0001
      0.537840E-0002
     -0.381210E-0002
     -0.130945E-0001
     -0.224698E-0001
     -0.319390E-0001
      0.499791E-0001
      0.412351E-0001
      0.324035E-0001
      0.234836E-0001
      0.144744E-0001
      0.537502E-0002
     -0.381537E-0002
     -0.130977E-0001
     -0.224729E-0001
     -0.319419E-0001
</DataArray>
<DataArray Name="RHO" type="Float64" format="ascii" NumberOfComponents="1">
      0.117197E+0001
      0.117197E+0001
      0.117197E+0001
      0.117197E+0001
      0.117197E+0001
      0.117197E+0001
      0.117197E+0001
      0.117197E+0001
      0.117197E+0001
      0.117197E+0001
      0.117197E+0001
      0.117197E+0001
      0.117197E+0001
      0.117197E+0001
      0.117197E+0001
      0.117197E+0001
      0.117197E+0001
      0.117197E+0001
      0.117197E+0001
      0.117197E+0001
      0.117197E+0001
      0.117197E+0001
      0.117197E+0001
      0.117197E+0001
      0.117197E+0001
      0.117197E+0001
      0.117197E+0001
      0.117197E+0001
      0.117197E+0001
      0.117197E+0001
      0.117197E+0001
      0.117197E+0001
      0.117197E+0001
      0.117197E+0001
      0.117197E+0001
      0.117197E+0001
      0.117197E+0001
      0.117197E+0001
      0.117197E+0001
      0.117197E+0001
      0.117197E+0001
      0.117197E+0001
      0.117197E+0001
      0.117197E+0001
      0.117197E+0001
      0.117197E+0001
      0.117197E+0001
      0.117197E+0001
      0.117197E+0001
      0.117197E+0001
      0.117197E+0001
      0.117197E+0001
      0.117197E+0001
      0.117197E+0001
      0.117197E+0001
      0.117197E+0001
      0.117197E+0001
      0.117197E+0001
      0.117197E+0001
      0.117197E+0001
      0.117197E+0001
      0.117197E+0001