<?xml version="1.0"?>
<VTKFile type="StructuredGrid" version="0.1" byte_order="LittleEndian">
<StructuredGrid WholeExtent="         130         140           0          10           0           1">
<Piece Extent="         130         140           0          10           0           1">
<Points>
<DataArray NumberOfComponents="3" type="Float64" format="ascii">
    0.670215E-01    0.000000E+00    0.000000E+00
    0.679450E-01    0.000000E+00    0.000000E+00
    0.688778E-01    0.000000E+00    0.000000E+00
    0.698199E-01    0.000000E+00    0.000000E+00
    0.707714E-01    0.000000E+00    0.000000E+00
    0.717325E-01    0.000000E+00    0.000000E+00
    0.727031E-01    0.000000E+00    0.000000E+00
    0.736835E-01    0.000000E+00    0.000000E+00
    0.746736E-01    0.000000E+00    0.000000E+00
    0.756737E-01    0.000000E+00    0.000000E+00
    0.766837E-01    0.000000E+00    0.000000E+00
    0.670215E-01    0.288897E-03    0.000000E+00
    0.679450E-01    0.288897E-03    0.000000E+00
    0.688778E-01    0.288897E-03    0.000000E+00
    0.698199E-01    0.288897E-03    0.000000E+00
    0.707714E-01    0.288897E-03    0.000000E+00
    0.717325E-01    0.288897E-03    0.000000E+00
    0.727031E-01    0.288897E-03    0.000000E+00
    0.736835E-01    0.288897E-03    0.000000E+00
    0.746736E-01    0.288897E-03    0.000000E+00
    0.756737E-01    0.288897E-03    0.000000E+00
    0.766837E-01    0.288897E-03    0.000000E+00
    0.670215E-01    0.572017E-03    0.000000E+00
    0.679450E-01    0.572017E-03    0.000000E+00
    0.688778E-01    0.572017E-03    0.000000E+00
    0.698199E-01    0.572017E-03    0.000000E+00
    0.707714E-01    0.572017E-03    0.000000E+00
    0.717325E-01    0.572017E-03    0.000000E+00
    0.727031E-01    0.572017E-03    0.000000E+00
    0.736835E-01    0.572017E-03    0.000000E+00
    0.746736E-01    0.572017E-03    0.000000E+00
    0.756737E-01    0.572017E-03    0.000000E+00
    0.766837E-01    0.572017E-03    0.000000E+00
    0.670215E-01    0.849473E-03    0.000000E+00
    0.679450E-01    0.849473E-03    0.000000E+00
    0.688778E-01    0.849473E-03    0.000000E+00
    0.698199E-01    0.849473E-03    0.000000E+00
    0.707714E-01    0.849473E-03    0.000000E+00
    0.717325E-01    0.849473E-03    0.000000E+00
    0.727031E-01    0.849473E-03    0.000000E+00
    0.736835E-01    0.849473E-03    0.000000E+00
    0.746736E-01    0.849473E-03    0.000000E+00
    0.756737E-01    0.849473E-03    0.000000E+00
    0.766837E-01    0.849473E-03    0.000000E+00
    0.670215E-01    0.112138E-02    0.000000E+00
    0.679450E-01    0.112138E-02    0.000000E+00
    0.688778E-01    0.112138E-02    0.000000E+00
    0.698199E-01    0.112138E-02    0.000000E+00
    0.707714E-01    0.112138E-02    0.000000E+00
    0.717325E-01    0.112138E-02    0.000000E+00
    0.727031E-01    0.112138E-02    0.000000E+00
    0.736835E-01    0.112138E-02    0.000000E+00
    0.746736E-01    0.112138E-02    0.000000E+00
    0.756737E-01    0.112138E-02    0.000000E+00
    0.766837E-01    0.112138E-02    0.000000E+00
    0.670215E-01    0.138785E-02    0.000000E+00
    0.679450E-01    0.138785E-02    0.000000E+00
    0.688778E-01    0.138785E-02    0.000000E+00
    0.698199E-01    0.138785E-02    0.000000E+00
    0.707714E-01    0.138785E-02    0.000000E+00
    0.717325E-01    0.138785E-02    0.000000E+00
    0.727031E-01    0.138785E-02    0.000000E+00
    0.736835E-01    0.138785E-02    0.000000E+00
    0.746736E-01    0.138785E-02    0.000000E+00
    0.756737E-01    0.138785E-02    0.000000E+00
    0.766837E-01    0.138785E-02    0.000000E+00
    0.670215E-01    0.164899E-02    0.000000E+00
    0.679450E-01    0.164899E-02    0.000000E+00
    0.688778E-01    0.164899E-02    0.000000E+00
    0.698199E-01    0.164899E-02    0.000000E+00
    0.707714E-01    0.164899E-02    0.000000E+00
    0.717325E-01    0.164899E-02    0.000000E+00
    0.727031E-01    0.164899E-02    0.000000E+00
    0.736835E-01    0.164899E-02    0.000000E+00
    0.746736E-01    0.164899E-02    0.000000E+00
    0.756737E-01    0.164899E-02    0.000000E+00
    0.766837E-01    0.164899E-02    0.000000E+00
    0.670215E-01    0.190491E-02    0.000000E+00
    0.679450E-01    0.190491E-02    0.000000E+00
    0.688778E-01    0.190491E-02    0.000000E+00
    0.698199E-01    0.190491E-02    0.000000E+00
    0.707714E-01    0.190491E-02    0.000000E+00
    0.717325E-01    0.190491E-02    0.000000E+00
    0.727031E-01    0.190491E-02    0.000000E+00
    0.736835E-01    0.190491E-02    0.000000E+00
    0.746736E-01    0.190491E-02    0.000000E+00
    0.756737E-01    0.190491E-02    0.000000E+00
    0.766837E-01    0.190491E-02    0.000000E+00
    0.670215E-01    0.215571E-02    0.000000E+00
    0.679450E-01    0.215571E-02    0.000000E+00
    0.688778E-01    0.215571E-02    0.000000E+00
    0.698199E-01    0.215571E-02    0.000000E+00
    0.707714E-01    0.215571E-02    0.000000E+00
    0.717325E-01    0.215571E-02    0.000000E+00
    0.727031E-01    0.215571E-02    0.000000E+00
    0.736835E-01    0.215571E-02    0.000000E+00
    0.746736E-01    0.215571E-02    0.000000E+00
    0.756737E-01    0.215571E-02    0.000000E+00
    0.766837E-01    0.215571E-02    0.000000E+00
    0.670215E-01    0.240149E-02    0.000000E+00
    0.679450E-01    0.240149E-02    0.000000E+00
    0.688778E-01    0.240149E-02    0.000000E+00
    0.698199E-01    0.240149E-02    0.000000E+00
    0.707714E-01    0.240149E-02    0.000000E+00
    0.717325E-01    0.240149E-02    0.000000E+00
    0.727031E-01    0.240149E-02    0.000000E+00
    0.736835E-01    0.240149E-02    0.000000E+00
    0.746736E-01    0.240149E-02    0.000000E+00
    0.756737E-01    0.240149E-02    0.000000E+00
    0.766837E-01    0.240149E-02    0.000000E+00
    0.670215E-01    0.264236E-02    0.000000E+00
    0.679450E-01    0.264236E-02    0.000000E+00
    0.688778E-01    0.264236E-02    0.000000E+00
    0.698199E-01    0.264236E-02    0.000000E+00
    0.707714E-01    0.264236E-02    0.000000E+00
    0.717325E-01    0.264236E-02    0.000000E+00
    0.727031E-01    0.264236E-02    0.000000E+00
    0.736835E-01    0.264236E-02    0.000000E+00
    0.746736E-01    0.264236E-02    0.000000E+00
    0.756737E-01    0.264236E-02    0.000000E+00
    0.766837E-01    0.264236E-02    0.000000E+00
    0.670215E-01    0.000000E+00    0.160000E-02
    0.679450E-01    0.000000E+00    0.160000E-02
    0.688778E-01    0.000000E+00    0.160000E-02
    0.698199E-01    0.000000E+00    0.160000E-02
    0.707714E-01    0.000000E+00    0.160000E-02
    0.717325E-01    0.000000E+00    0.160000E-02
    0.727031E-01    0.000000E+00    0.160000E-02
    0.736835E-01    0.000000E+00    0.160000E-02
    0.746736E-01    0.000000E+00    0.160000E-02
    0.756737E-01    0.000000E+00    0.160000E-02
    0.766837E-01    0.000000E+00    0.160000E-02
    0.670215E-01    0.288897E-03    0.160000E-02
    0.679450E-01    0.288897E-03    0.160000E-02
    0.688778E-01    0.288897E-03    0.160000E-02
    0.698199E-01    0.288897E-03    0.160000E-02
    0.707714E-01    0.288897E-03    0.160000E-02
    0.717325E-01    0.288897E-03    0.160000E-02
    0.727031E-01    0.288897E-03    0.160000E-02
    0.736835E-01    0.288897E-03    0.160000E-02
    0.746736E-01    0.288897E-03    0.160000E-02
    0.756737E-01    0.288897E-03    0.160000E-02
    0.766837E-01    0.288897E-03    0.160000E-02
    0.670215E-01    0.572017E-03    0.160000E-02
    0.679450E-01    0.572017E-03    0.160000E-02
    0.688778E-01    0.572017E-03    0.160000E-02
    0.698199E-01    0.572017E-03    0.160000E-02
    0.707714E-01    0.572017E-03    0.160000E-02
    0.717325E-01    0.572017E-03    0.160000E-02
    0.727031E-01    0.572017E-03    0.160000E-02
    0.736835E-01    0.572017E-03    0.160000E-02
    0.746736E-01    0.572017E-03    0.160000E-02
    0.756737E-01    0.572017E-03    0.160000E-02
    0.766837E-01    0.572017E-03    0.160000E-02
    0.670215E-01    0.849473E-03    0.160000E-02
    0.679450E-01    0.849473E-03    0.160000E-02
    0.688778E-01    0.849473E-03    0.160000E-02
    0.698199E-01    0.849473E-03    0.160000E-02
    0.707714E-01    0.849473E-03    0.160000E-02
    0.717325E-01    0.849473E-03    0.160000E-02
    0.727031E-01    0.849473E-03    0.160000E-02
    0.736835E-01    0.849473E-03    0.160000E-02
    0.746736E-01    0.849473E-03    0.160000E-02
    0.756737E-01    0.849473E-03    0.160000E-02
    0.766837E-01    0.849473E-03    0.160000E-02
    0.670215E-01    0.112138E-02    0.160000E-02
    0.679450E-01    0.112138E-02    0.160000E-02
    0.688778E-01    0.112138E-02    0.160000E-02
    0.698199E-01    0.112138E-02    0.160000E-02
    0.707714E-01    0.112138E-02    0.160000E-02
    0.717325E-01    0.112138E-02    0.160000E-02
    0.727031E-01    0.112138E-02    0.160000E-02
    0.736835E-01    0.112138E-02    0.160000E-02
    0.746736E-01    0.112138E-02    0.160000E-02
    0.756737E-01    0.112138E-02    0.160000E-02
    0.766837E-01    0.112138E-02    0.160000E-02
    0.670215E-01    0.138785E-02    0.160000E-02
    0.679450E-01    0.138785E-02    0.160000E-02
    0.688778E-01    0.138785E-02    0.160000E-02
    0.698199E-01    0.138785E-02    0.160000E-02
    0.707714E-01    0.138785E-02    0.160000E-02
    0.717325E-01    0.138785E-02    0.160000E-02
    0.727031E-01    0.138785E-02    0.160000E-02
    0.736835E-01    0.138785E-02    0.160000E-02
    0.746736E-01    0.138785E-02    0.160000E-02
    0.756737E-01    0.138785E-02    0.160000E-02
    0.766837E-01    0.138785E-02    0.160000E-02
    0.670215E-01    0.164899E-02    0.160000E-02
    0.679450E-01    0.164899E-02    0.160000E-02
    0.688778E-01    0.164899E-02    0.160000E-02
    0.698199E-01    0.164899E-02    0.160000E-02
    0.707714E-01    0.164899E-02    0.160000E-02
    0.717325E-01    0.164899E-02    0.160000E-02
    0.727031E-01    0.164899E-02    0.160000E-02
    0.736835E-01    0.164899E-02    0.160000E-02
    0.746736E-01    0.164899E-02    0.160000E-02
    0.756737E-01    0.164899E-02    0.160000E-02
    0.766837E-01    0.164899E-02    0.160000E-02
    0.670215E-01    0.190491E-02    0.160000E-02
    0.679450E-01    0.190491E-02    0.160000E-02
    0.688778E-01    0.190491E-02    0.160000E-02
    0.698199E-01    0.190491E-02    0.160000E-02
    0.707714E-01    0.190491E-02    0.160000E-02
    0.717325E-01    0.190491E-02    0.160000E-02
    0.727031E-01    0.190491E-02    0.160000E-02
    0.736835E-01    0.190491E-02    0.160000E-02
    0.746736E-01    0.190491E-02    0.160000E-02
    0.756737E-01    0.190491E-02    0.160000E-02
    0.766837E-01    0.190491E-02    0.160000E-02
    0.670215E-01    0.215571E-02    0.160000E-02
    0.679450E-01    0.215571E-02    0.160000E-02
    0.688778E-01    0.215571E-02    0.160000E-02
    0.698199E-01    0.215571E-02    0.160000E-02
    0.707714E-01    0.215571E-02    0.160000E-02
    0.717325E-01    0.215571E-02    0.160000E-02
    0.727031E-01    0.215571E-02    0.160000E-02
    0.736835E-01    0.215571E-02    0.160000E-02
    0.746736E-01    0.215571E-02    0.160000E-02
    0.756737E-01    0.215571E-02    0.160000E-02
    0.766837E-01    0.215571E-02    0.160000E-02
    0.670215E-01    0.240149E-02    0.160000E-02
    0.679450E-01    0.240149E-02    0.160000E-02
    0.688778E-01    0.240149E-02    0.160000E-02
    0.698199E-01    0.240149E-02    0.160000E-02
    0.707714E-01    0.240149E-02    0.160000E-02
    0.717325E-01    0.240149E-02    0.160000E-02
    0.727031E-01    0.240149E-02    0.160000E-02
    0.736835E-01    0.240149E-02    0.160000E-02
    0.746736E-01    0.240149E-02    0.160000E-02
    0.756737E-01    0.240149E-02    0.160000E-02
    0.766837E-01    0.240149E-02    0.160000E-02
    0.670215E-01    0.264236E-02    0.160000E-02
    0.679450E-01    0.264236E-02    0.160000E-02
    0.688778E-01    0.264236E-02    0.160000E-02
    0.698199E-01    0.264236E-02    0.160000E-02
    0.707714E-01    0.264236E-02    0.160000E-02
    0.717325E-01    0.264236E-02    0.160000E-02
    0.727031E-01    0.264236E-02    0.160000E-02
    0.736835E-01    0.264236E-02    0.160000E-02
    0.746736E-01    0.264236E-02    0.160000E-02
    0.756737E-01    0.264236E-02    0.160000E-02
    0.766837E-01    0.264236E-02    0.160000E-02
</DataArray>
</Points>
<PointData>
<DataArray Name="Velocity" type="Float64" format="ascii" NumberOfComponents="3">
    0.883515E-01    0.000000E+00    0.000000E+00
    0.883548E-01    0.000000E+00    0.000000E+00
    0.883579E-01    0.000000E+00    0.000000E+00
    0.883609E-01    0.000000E+00    0.000000E+00
    0.883636E-01    0.000000E+00    0.000000E+00
    0.883663E-01    0.000000E+00    0.000000E+00
    0.883687E-01    0.000000E+00    0.000000E+00
    0.883711E-01    0.000000E+00    0.000000E+00
    0.883732E-01    0.000000E+00    0.000000E+00
    0.883753E-01    0.000000E+00    0.000000E+00
    0.883772E-01    0.000000E+00    0.000000E+00
    0.883515E-01   -0.530153E-06    0.000000E+00
    0.883548E-01   -0.500316E-06    0.000000E+00
    0.883579E-01   -0.467897E-06    0.000000E+00
    0.883609E-01   -0.437193E-06    0.000000E+00
    0.883636E-01   -0.408146E-06    0.000000E+00
    0.883663E-01   -0.380769E-06    0.000000E+00
    0.883687E-01   -0.355035E-06    0.000000E+00
    0.883711E-01   -0.330821E-06    0.000000E+00
    0.883732E-01   -0.307977E-06    0.000000E+00
    0.883753E-01   -0.286429E-06    0.000000E+00
    0.883772E-01   -0.266151E-06    0.000000E+00
    0.883515E-01   -0.104924E-05    0.000000E+00
    0.883548E-01   -0.990176E-06    0.000000E+00
    0.883580E-01   -0.926011E-06    0.000000E+00
    0.883609E-01   -0.865256E-06    0.000000E+00
    0.883637E-01   -0.807790E-06    0.000000E+00
    0.883663E-01   -0.753626E-06    0.000000E+00
    0.883688E-01   -0.702712E-06    0.000000E+00
    0.883711E-01   -0.654796E-06    0.000000E+00
    0.883733E-01   -0.609582E-06    0.000000E+00
    0.883753E-01   -0.566915E-06    0.000000E+00
    0.883772E-01   -0.526771E-06    0.000000E+00
    0.883516E-01   -0.155709E-05    0.000000E+00
    0.883549E-01   -0.146943E-05    0.000000E+00
    0.883580E-01   -0.137421E-05    0.000000E+00
    0.883609E-01   -0.128407E-05    0.000000E+00
    0.883637E-01   -0.119881E-05    0.000000E+00
    0.883663E-01   -0.111845E-05    0.000000E+00
    0.883688E-01   -0.104291E-05    0.000000E+00
    0.883711E-01   -0.971818E-06    0.000000E+00
    0.883733E-01   -0.904715E-06    0.000000E+00
    0.883754E-01   -0.841371E-06    0.000000E+00
    0.883773E-01   -0.781781E-06    0.000000E+00
    0.883517E-01   -0.205357E-05    0.000000E+00
    0.883550E-01   -0.193797E-05    0.000000E+00
    0.883581E-01   -0.181242E-05    0.000000E+00
    0.883610E-01   -0.169356E-05    0.000000E+00
    0.883638E-01   -0.158112E-05    0.000000E+00
    0.883664E-01   -0.147515E-05    0.000000E+00
    0.883689E-01   -0.137555E-05    0.000000E+00
    0.883712E-01   -0.128180E-05    0.000000E+00
    0.883734E-01   -0.119330E-05    0.000000E+00
    0.883754E-01   -0.110973E-05    0.000000E+00
    0.883773E-01   -0.103113E-05    0.000000E+00
    0.883518E-01   -0.253858E-05    0.000000E+00
    0.883551E-01   -0.239571E-05    0.000000E+00
    0.883582E-01   -0.224056E-05    0.000000E+00
    0.883611E-01   -0.209366E-05    0.000000E+00
    0.883639E-01   -0.195466E-05    0.000000E+00
    0.883665E-01   -0.182367E-05    0.000000E+00
    0.883689E-01   -0.170057E-05    0.000000E+00
    0.883712E-01   -0.158471E-05    0.000000E+00
    0.883734E-01   -0.147530E-05    0.000000E+00
    0.883755E-01   -0.137197E-05    0.000000E+00
    0.883774E-01   -0.127477E-05    0.000000E+00
    0.883519E-01   -0.301210E-05    0.000000E+00
    0.883552E-01   -0.284263E-05    0.000000E+00
    0.883583E-01   -0.265862E-05    0.000000E+00
    0.883612E-01   -0.248435E-05    0.000000E+00
    0.883640E-01   -0.231941E-05    0.000000E+00
    0.883666E-01   -0.216396E-05    0.000000E+00
    0.883690E-01   -0.201795E-05    0.000000E+00
    0.883713E-01   -0.188051E-05    0.000000E+00
    0.883735E-01   -0.175069E-05    0.000000E+00
    0.883755E-01   -0.162805E-05    0.000000E+00
    0.883774E-01   -0.151269E-05    0.000000E+00
    0.883521E-01   -0.347412E-05    0.000000E+00
    0.883553E-01   -0.327872E-05    0.000000E+00
    0.883584E-01   -0.306660E-05    0.000000E+00
    0.883613E-01   -0.286564E-05    0.000000E+00
    0.883641E-01   -0.267535E-05    0.000000E+00
    0.883667E-01   -0.249604E-05    0.000000E+00
    0.883691E-01   -0.232769E-05    0.000000E+00
    0.883714E-01   -0.216922E-05    0.000000E+00
    0.883736E-01   -0.201949E-05    0.000000E+00
    0.883756E-01   -0.187800E-05    0.000000E+00
    0.883775E-01   -0.174490E-05    0.000000E+00
    0.883522E-01   -0.392469E-05    0.000000E+00
    0.883555E-01   -0.370402E-05    0.000000E+00
    0.883585E-01   -0.346454E-05    0.000000E+00
    0.883615E-01   -0.323757E-05    0.000000E+00
    0.883642E-01   -0.302252E-05    0.000000E+00
    0.883668E-01   -0.281993E-05    0.000000E+00
    0.883692E-01   -0.262981E-05    0.000000E+00
    0.883715E-01   -0.245087E-05    0.000000E+00
    0.883737E-01   -0.228172E-05    0.000000E+00
    0.883757E-01   -0.212182E-05    0.000000E+00
    0.883776E-01   -0.197140E-05    0.000000E+00
    0.883524E-01   -0.436386E-05    0.000000E+00
    0.883556E-01   -0.411860E-05    0.000000E+00
    0.883587E-01   -0.385250E-05    0.000000E+00
    0.883616E-01   -0.360018E-05    0.000000E+00
    0.883643E-01   -0.336097E-05    0.000000E+00
    0.883669E-01   -0.313567E-05    0.000000E+00
    0.883693E-01   -0.292440E-05    0.000000E+00
    0.883716E-01   -0.272555E-05    0.000000E+00
    0.883737E-01   -0.253747E-05    0.000000E+00
    0.883758E-01   -0.235961E-05    0.000000E+00
    0.883777E-01   -0.219225E-05    0.000000E+00
    0.883526E-01   -0.479167E-05    0.000000E+00
    0.883558E-01   -0.452186E-05    0.000000E+00
    0.883589E-01   -0.422860E-05    0.000000E+00
    0.883617E-01   -0.395157E-05    0.000000E+00
    0.883645E-01   -0.369029E-05    0.000000E+00
    0.883670E-01   -0.344395E-05    0.000000E+00
    0.883694E-01   -0.321167E-05    0.000000E+00
    0.883717E-01   -0.299272E-05    0.000000E+00
    0.883739E-01   -0.278653E-05    0.000000E+00
    0.883759E-01   -0.259251E-05    0.000000E+00
    0.883777E-01   -0.241010E-05    0.000000E+00
    0.883515E-01    0.000000E+00    0.000000E+00
    0.883548E-01    0.000000E+00    0.000000E+00
    0.883579E-01    0.000000E+00    0.000000E+00
    0.883609E-01    0.000000E+00    0.000000E+00
    0.883636E-01    0.000000E+00    0.000000E+00
    0.883663E-01    0.000000E+00    0.000000E+00
    0.883687E-01    0.000000E+00    0.000000E+00
    0.883711E-01    0.000000E+00    0.000000E+00
    0.883732E-01    0.000000E+00    0.000000E+00
    0.883753E-01    0.000000E+00    0.000000E+00
    0.883772E-01    0.000000E+00    0.000000E+00
    0.883515E-01   -0.534576E-06    0.130933E-21
    0.883548E-01   -0.500316E-06    0.122542E-21
    0.883579E-01   -0.467897E-06    0.114602E-21
    0.883609E-01   -0.437193E-06    0.107081E-21
    0.883636E-01   -0.408146E-06    0.999670E-22
    0.883663E-01   -0.380769E-06    0.932614E-22
    0.883687E-01   -0.355035E-06    0.869585E-22
    0.883711E-01   -0.330821E-06    0.810277E-22
    0.883732E-01   -0.307977E-06    0.754325E-22
    0.883753E-01   -0.286429E-06    0.701548E-22
    0.883772E-01   -0.266151E-06    0.651882E-22
    0.883515E-01   -0.105800E-05    0.259135E-21
    0.883548E-01   -0.990176E-06    0.242523E-21
    0.883580E-01   -0.926011E-06    0.226807E-21
    0.883609E-01   -0.865256E-06    0.211927E-21
    0.883637E-01   -0.807790E-06    0.197851E-21
    0.883663E-01   -0.753626E-06    0.184585E-21
    0.883688E-01   -0.702712E-06    0.172115E-21
    0.883711E-01   -0.654796E-06    0.160379E-21
    0.883733E-01   -0.609582E-06    0.149304E-21
    0.883753E-01   -0.566915E-06    0.138854E-21
    0.883772E-01   -0.526771E-06    0.129022E-21
    0.883516E-01   -0.157009E-05    0.384560E-21
    0.883549E-01   -0.146943E-05    0.359906E-21
    0.883580E-01   -0.137421E-05    0.336585E-21
    0.883609E-01   -0.128407E-05    0.314507E-21
    0.883637E-01   -0.119881E-05    0.293624E-21
    0.883663E-01   -0.111845E-05    0.273941E-21
    0.883688E-01   -0.104291E-05    0.255440E-21
    0.883711E-01   -0.971818E-06    0.238027E-21
    0.883733E-01   -0.904715E-06    0.221591E-21
    0.883754E-01   -0.841371E-06    0.206077E-21
    0.883773E-01   -0.781781E-06    0.191481E-21
    0.883517E-01   -0.207071E-05    0.507177E-21
    0.883550E-01   -0.193797E-05    0.474665E-21
    0.883581E-01   -0.181242E-05    0.443915E-21
    0.883610E-01   -0.169356E-05    0.414803E-21
    0.883638E-01   -0.158112E-05    0.387263E-21
    0.883664E-01   -0.147515E-05    0.361308E-21
    0.883689E-01   -0.137555E-05    0.336913E-21
    0.883712E-01   -0.128180E-05    0.313951E-21
    0.883734E-01   -0.119330E-05    0.292274E-21
    0.883754E-01   -0.110973E-05    0.271806E-21
    0.883773E-01   -0.103113E-05    0.252553E-21
    0.883518E-01   -0.255977E-05    0.626963E-21
    0.883551E-01   -0.239571E-05    0.586780E-21
    0.883582E-01   -0.224056E-05    0.548780E-21
    0.883611E-01   -0.209366E-05    0.512799E-21
    0.883639E-01   -0.195466E-05    0.478754E-21
    0.883665E-01   -0.182367E-05    0.446669E-21
    0.883689E-01   -0.170057E-05    0.416520E-21
    0.883712E-01   -0.158471E-05    0.388141E-21
    0.883734E-01   -0.147530E-05    0.361343E-21
    0.883755E-01   -0.137197E-05    0.336035E-21
    0.883774E-01   -0.127477E-05    0.312228E-21
    0.883519E-01   -0.303724E-05    0.743910E-21
    0.883552E-01   -0.284263E-05    0.696243E-21
    0.883583E-01   -0.265862E-05    0.651174E-21
    0.883612E-01   -0.248435E-05    0.608491E-21
    0.883640E-01   -0.231941E-05    0.568091E-21
    0.883666E-01   -0.216396E-05    0.530018E-21
    0.883690E-01   -0.201795E-05    0.494255E-21
    0.883713E-01   -0.188051E-05    0.460592E-21
    0.883735E-01   -0.175069E-05    0.428795E-21
    0.883755E-01   -0.162805E-05    0.398758E-21
    0.883774E-01   -0.151269E-05    0.370502E-21
    0.883521E-01   -0.350311E-05    0.858016E-21
    0.883553E-01   -0.327872E-05    0.803054E-21
    0.883584E-01   -0.306660E-05    0.751099E-21
    0.883613E-01   -0.286564E-05    0.701880E-21
    0.883641E-01   -0.267535E-05    0.655272E-21
    0.883667E-01   -0.249604E-05    0.611355E-21
    0.883691E-01   -0.232769E-05    0.570119E-21
    0.883714E-01   -0.216922E-05    0.531306E-21
    0.883736E-01   -0.201949E-05    0.494632E-21
    0.883756E-01   -0.187800E-05    0.459977E-21
    0.883775E-01   -0.174490E-05    0.427376E-21
    0.883522E-01   -0.395744E-05    0.969292E-21
    0.883555E-01   -0.370402E-05    0.907224E-21
    0.883585E-01   -0.346454E-05    0.848568E-21
    0.883615E-01   -0.323757E-05    0.792976E-21
    0.883642E-01   -0.302252E-05    0.740305E-21
    0.883668E-01   -0.281993E-05    0.690683E-21
    0.883692E-01   -0.262981E-05    0.644118E-21
    0.883715E-01   -0.245087E-05    0.600291E-21
    0.883737E-01   -0.228172E-05    0.558860E-21
    0.883757E-01   -0.212182E-05    0.519697E-21
    0.883776E-01   -0.197140E-05    0.482854E-21
    0.883524E-01   -0.440027E-05    0.107776E-20
    0.883556E-01   -0.411860E-05    0.100877E-20
    0.883587E-01   -0.385250E-05    0.943590E-21
    0.883616E-01   -0.360018E-05    0.881790E-21
    0.883643E-01   -0.336097E-05    0.823200E-21
    0.883669E-01   -0.313567E-05    0.768017E-21
    0.883693E-01   -0.292440E-05    0.716272E-21
    0.883716E-01   -0.272555E-05    0.667568E-21
    0.883737E-01   -0.253747E-05    0.621501E-21
    0.883758E-01   -0.235961E-05    0.577937E-21
    0.883777E-01   -0.219225E-05    0.536947E-21
    0.883526E-01   -0.483163E-05    0.118341E-20
    0.883558E-01   -0.452186E-05    0.110754E-20
    0.883589E-01   -0.422860E-05    0.103571E-20
    0.883617E-01   -0.395157E-05    0.967856E-21
    0.883645E-01   -0.369029E-05    0.903861E-21
    0.883670E-01   -0.344395E-05    0.843524E-21
    0.883694E-01   -0.321167E-05    0.786632E-21
    0.883717E-01   -0.299272E-05    0.733005E-21
    0.883739E-01   -0.278653E-05    0.682503E-21
    0.883759E-01   -0.259251E-05    0.634983E-21
    0.883777E-01   -0.241010E-05    0.590304E-21
</DataArray>
</PointData>
<CellData>
<DataArray Name="DP" type="Float64" format="ascii" NumberOfComponents="1">
      0.000000E+0000
      0.000000E+0000
      0.000000E+0000
      0.000000E+0000
      0.000000E+0000
      0.000000E+0000
      0.000000E+0000
      0.000000E+0000
      0.000000E+0000
      0.000000E+0000
      0.000000E+0000
      0.000000E+0000
      0.000000E+0000
      0.000000E+0000
      0.000000E+0000
      0.000000E+0000
      0.000000E+0000
      0.000000E+0000
      0.000000E+0000
      0.000000E+0000
      0.000000E+0000
      0.000000E+0000
      0.000000E+0000
      0.000000E+0000
      0.000000E+0000
      0.000000E+0000
      0.000000E+0000
      0.000000E+0000
      0.000000E+0000
      0.000000E+0000
      0.000000E+0000
      0.000000E+0000
      0.000000E+0000
      0.000000E+0000
      0.000000E+0000
      0.000000E+0000
      0.000000E+0000
      0.000000E+0000
      0.000000E+0000
      0.000000E+0000
      0.000000E+0000
      0.000000E+0000
      0.000000E+0000
      0.000000E+0000
      0.000000E+0000
      0.000000E+0000
      0.000000E+0000
      0.000000E+0000
      0.000000E+0000
      0.000000E+0000
      0.000000E+0000
      0.000000E+0000
      0.000000E+0000
      0.000000E+0000
      0.000000E+0000
      0.000000E+0000
      0.000000E+0000
      0.000000E+0000
      0.000000E+0000
      0.000000E+0000
      0.000000E+0000
      0.000000E+0000
      0.000000E+0000
      0.000000E+0000
      0.000000E+0000
      0.000000E+0000
      0.000000E+0000
      0.000000E+0000
      0.000000E+0000
      0.000000E+0000
      0.000000E+0000
      0.000000E+0000
      0.000000E+0000
      0.000000E+0000
      0.000000E+0000
      0.000000E+0000
      0.000000E+0000
      0.000000E+0000
      0.000000E+0000
      0.000000E+0000
      0.000000E+0000
      0.000000E+0000
      0.000000E+0000
      0.000000E+0000
      0.000000E+0000
      0.000000E+0000
      0.000000E+0000
      0.000000E+0000
      0.000000E+0000
      0.000000E+0000
      0.000000E+0000
      0.000000E+0000
      0.000000E+0000
      0.000000E+0000
      0.000000E+0000
      0.000000E+0000
      0.000000E+0000
      0.000000E+0000
      0.000000E+0000
      0.000000E+0000
</DataArray>
<DataArray Name="P" type="Float64" format="ascii" NumberOfComponents="1">
     -0.142672E+0000
     -0.153349E+0000
     -0.164134E+0000
     -0.175029E+0000
     -0.186034E+0000
     -0.197149E+0000
     -0.208374E+0000
     -0.219708E+0000
     -0.231153E+0000
     -0.242710E+0000
     -0.142672E+0000
     -0.153349E+0000
     -0.164134E+0000
     -0.175029E+0000
     -0.186034E+0000
     -0.197149E+0000
     -0.208374E+0000
     -0.219708E+0000
     -0.231153E+0000
     -0.242710E+0000
     -0.142672E+0000
     -0.153348E+0000
     -0.164133E+0000
     -0.175029E+0000
     -0.186034E+0000
     -0.197149E+0000
     -0.208374E+0000
     -0.219708E+0000
     -0.231153E+0000
     -0.242710E+0000
     -0.142672E+0000
     -0.153348E+0000
     -0.164133E+0000
     -0.175029E+0000
     -0.186034E+0000
     -0.197150E+0000
     -0.208374E+0000
     -0.219709E+0000
     -0.231153E+0000
     -0.242710E+0000
     -0.142672E+0000
     -0.153348E+0000
     -0.164133E+0000
     -0.175028E+0000
     -0.186034E+0000
     -0.197150E+0000
     -0.208375E+0000
     -0.219709E+0000
     -0.231154E+0000
     -0.242711E+0000
     -0.142672E+0000
     -0.153348E+0000
     -0.164133E+0000
     -0.175028E+0000
     -0.186034E+0000
     -0.197150E+0000
     -0.208375E+0000
     -0.219709E+0000
     -0.231154E+0000
     -0.242711E+0000
     -0.142672E+0000
     -0.153347E+0000
     -0.164132E+0000
     -0.175028E+0000
     -0.186035E+0000
     -0.197151E+0000
     -0.208375E+0000
     -0.219709E+0000
     -0.231154E+0000
     -0.242711E+0000
     -0.142672E+0000
     -0.153347E+0000
     -0.164132E+0000
     -0.175028E+0000
     -0.186035E+0000
     -0.197151E+0000
     -0.208376E+0000
     -0.219710E+0000
     -0.231154E+0000
     -0.242711E+0000
     -0.142672E+0000
     -0.153347E+0000
     -0.164131E+0000
     -0.175028E+0000
     -0.186035E+0000
     -0.197151E+0000
     -0.208376E+0000
     -0.219710E+0000
     -0.231155E+0000
     -0.242711E+0000
     -0.142672E+0000
     -0.153346E+0000
     -0.164131E+0000
     -0.175027E+0000
     -0.186035E+0000
     -0.197152E+0000
     -0.208377E+0000
     -0.219711E+0000
     -0.231155E+0000
     -0.242712E+0000
</DataArray>
<DataArray Name="RHO" type="Float64" format="ascii" NumberOfComponents="1">
      0.117197E+0001
      0.117197E+0001
      0.117197E+0001
      0.117197E+0001
      0.117197E+0001
      0.117197E+0001
      0.117197E+0001
      0.117197E+0001
      0.117197E+0001
      0.117197E+0001
      0.117197E+0001
      0.117197E+0001
      0.117197E+0001
      0.117197E+0001
      0.117197E+0001
      0.117197E+0001
      0.117197E+0001
      0.117197E+0001
      0.117197E+0001
      0.117197E+0001
      0.117197E+0001
      0.117197E+0001
      0.117197E+0001
      0.117197E+0001
      0.117197E+0001
      0.117197E+0001
      0.117197E+0001
      0.117197E+0001
      0.117197E+0001
      0.117197E+0001
      0.117197E+0001
      0.117197E+0001
      0.117197E+0001
      0.117197E+0001
      0.117197E+0001
      0.117197E+0001
      0.117197E+0001
      0.117197E+0001
      0.117197E+0001
      0.117197E+0001
      0.117197E+0001
      0.117197E+0001
      0.117197E+0001
      0.117197E+0001
      0.117197E+0001
      0.117197E+0001
      0.117197E+0001
      0.117197E+0001
      0.117197E+0001
      0.117197E+0001
      0.117197E+0001
      0.117197E+0001
      0.117197E+0001
      0.117197E+0001
      0.117197E+0001
      0.117197E+0001
      0.117197E+0001
      0.117197E+0001
      0.117197E+0001
      0.117197E+0001
      0.117197E+0001
      0.117197E+0001